 DBCSR| CPU Multiplication driver                                           XSMM (U)
 DBCSR| Multrec recursion limit                                              512 (U)
 DBCSR| Multiplication stack size                                           1000 (D)
 DBCSR| Maximum elements for images                                    UNLIMITED (U)
 DBCSR| Multiplicative factor virtual images                                   1 (U)
 DBCSR| Use multiplication densification                                       T (D)
 DBCSR| Multiplication size stacks                                             3 (U)
 DBCSR| Use memory pool for CPU allocation                                     F (U)
 DBCSR| Number of 3D layers                                               SINGLE (U)
 DBCSR| Use MPI memory allocation                                              F (U)
 DBCSR| Use RMA algorithm                                                      F (U)
 DBCSR| Use Communication thread                                               T (U)
 DBCSR| Communication thread load                                             83 (D)
 DBCSR| MPI: My process id                                                     0
 DBCSR| MPI: Number of processes                                             128
 DBCSR| OMP: Current number of threads                                         2
 DBCSR| OMP: Max number of threads                                             2
 DBCSR| Split modifier for TAS multiplication algorithm                  1.0E+00 (U)


  **** **** ******  **  PROGRAM STARTED AT               2023-12-06 14:09:42.799
 ***** ** ***  *** **   PROGRAM STARTED ON                           nesh-srp150
 **    ****   ******    PROGRAM STARTED BY                              suphc355
 ***** **    ** ** **   PROGRAM PROCESS ID                               1991940
  **** **  *******  **  PROGRAM STARTED IN /gxfs_work/cau/suphc355/benchmark_pbe
                                           0/pbe0_bm_ae/quinoxaline

 CP2K| version string:                 CP2K version 2023.2 (Development Version)
 CP2K| source code revision number:                                  git:845a3ae
 CP2K| cp2kflags: omp libint fftw3 libxc parallel mpi_f08 scalapack cosma xsmm s
 CP2K|            pglib mkl
 CP2K| is freely available from                            https://www.cp2k.org/
 CP2K| Program compiled at                           Fr 1. Dez 12:58:35 CET 2023
 CP2K| Program compiled on                                           nesh-login3
 CP2K| Program compiled for                                                local
 CP2K| Data directory path            /gxfs_home/cau/suphc355/software/cp2k/data
 CP2K| Input file name                                                   les.inp
 
 GLOBAL| Force Environment number                                              1
 GLOBAL| Basis set file name                                     EMSL_BASIS_SETS
 GLOBAL| Potential file name                                           POTENTIAL
 GLOBAL| MM Potential file name                                     MM_POTENTIAL
 GLOBAL| Coordinate file name                                            lit.xyz
 GLOBAL| Method name                                                        CP2K
 GLOBAL| Project name                                          quineoxaline_less
 GLOBAL| Run type                                                         ENERGY
 GLOBAL| FFT library                                                       FFTW3
 GLOBAL| Diagonalization library                                       ScaLAPACK
 GLOBAL| DGEMM library                                                      BLAS
 GLOBAL| Orthonormality check for eigenvectors                          DISABLED
 GLOBAL| Matrix multiplication library                                     COSMA
 GLOBAL| All-to-all communication in single precision                          F
 GLOBAL| FFTs using library dependent lengths                                  F
 GLOBAL| Grid backend                                                       AUTO
 GLOBAL| Global print level                                               MEDIUM
 GLOBAL| MPI I/O enabled                                                       T
 GLOBAL| Total number of message passing processes                           128
 GLOBAL| Number of threads for this process                                    2
 GLOBAL| This output is from process                                           0
 GLOBAL| Stack size for threads created by OpenMP (OMP_STACKSIZE)        default
 GLOBAL| CPU model name                              Intel(R) Xeon(R) Gold 6426Y
 GLOBAL| CPUID                                                              1003

 MEMORY| system memory details [Kb]
 MEMORY|                        rank 0           min           max       average
 MEMORY| MemTotal            263786136     263786136     263786136     263786136
 MEMORY| MemFree             243996004     243996004     244286636     244121721
 MEMORY| Buffers                858968        795396        858968        838311
 MEMORY| Cached                 787824        690944        787824        756922
 MEMORY| Slab                   524400        495404        524400        510658
 MEMORY| SReclaimable           148712        123904        148712        138694
 MEMORY| MemLikelyFree       245791508     245791508     245906004     245855649


 *** Fundamental physical constants (SI units) ***

 *** Literature: B. J. Mohr and B. N. Taylor,
 ***             CODATA recommended values of the fundamental physical
 ***             constants: 2006, Web Version 5.1
 ***             http://physics.nist.gov/constants

 Speed of light in vacuum [m/s]                             2.99792458000000E+08
 Magnetic constant or permeability of vacuum [N/A**2]       1.25663706143592E-06
 Electric constant or permittivity of vacuum [F/m]          8.85418781762039E-12
 Planck constant (h) [J*s]                                  6.62606896000000E-34
 Planck constant (h-bar) [J*s]                              1.05457162825177E-34
 Elementary charge [C]                                      1.60217648700000E-19
 Electron mass [kg]                                         9.10938215000000E-31
 Electron g factor [ ]                                     -2.00231930436220E+00
 Proton mass [kg]                                           1.67262163700000E-27
 Fine-structure constant                                    7.29735253760000E-03
 Rydberg constant [1/m]                                     1.09737315685270E+07
 Avogadro constant [1/mol]                                  6.02214179000000E+23
 Boltzmann constant [J/K]                                   1.38065040000000E-23
 Atomic mass unit [kg]                                      1.66053878200000E-27
 Bohr radius [m]                                            5.29177208590000E-11

 *** Conversion factors ***

 [u] -> [a.u.]                                              1.82288848426455E+03
 [Angstrom] -> [Bohr] = [a.u.]                              1.88972613288564E+00
 [a.u.] = [Bohr] -> [Angstrom]                              5.29177208590000E-01
 [a.u.] -> [s]                                              2.41888432650478E-17
 [a.u.] -> [fs]                                             2.41888432650478E-02
 [a.u.] -> [J]                                              4.35974393937059E-18
 [a.u.] -> [N]                                              8.23872205491840E-08
 [a.u.] -> [K]                                              3.15774647902944E+05
 [a.u.] -> [kJ/mol]                                         2.62549961709828E+03
 [a.u.] -> [kcal/mol]                                       6.27509468713739E+02
 [a.u.] -> [Pa]                                             2.94210107994716E+13
 [a.u.] -> [bar]                                            2.94210107994716E+08
 [a.u.] -> [atm]                                            2.90362800883016E+08
 [a.u.] -> [eV]                                             2.72113838565563E+01
 [a.u.] -> [Hz]                                             6.57968392072181E+15
 [a.u.] -> [1/cm] (wave numbers)                            2.19474631370540E+05
 [a.u./Bohr**2] -> [1/cm]                                   5.14048714338585E+03
 

 CELL_TOP| Volume [angstrom^3]:                                      1000.000000
 CELL_TOP| Vector a [angstrom    10.000     0.000     0.000   |a| =    10.000000
 CELL_TOP| Vector b [angstrom     0.000    10.000     0.000   |b| =    10.000000
 CELL_TOP| Vector c [angstrom     0.000     0.000    10.000   |c| =    10.000000
 CELL_TOP| Angle (b,c), alpha [degree]:                                90.000000
 CELL_TOP| Angle (a,c), beta  [degree]:                                90.000000
 CELL_TOP| Angle (a,b), gamma [degree]:                                90.000000
 CELL_TOP| Numerically orthorhombic:                                         YES
 CELL_TOP| Periodicity                                                      NONE

 CELL| Volume [angstrom^3]:                                          1000.000000
 CELL| Vector a [angstrom]:      10.000     0.000     0.000   |a| =    10.000000
 CELL| Vector b [angstrom]:       0.000    10.000     0.000   |b| =    10.000000
 CELL| Vector c [angstrom]:       0.000     0.000    10.000   |c| =    10.000000
 CELL| Angle (b,c), alpha [degree]:                                    90.000000
 CELL| Angle (a,c), beta  [degree]:                                    90.000000
 CELL| Angle (a,b), gamma [degree]:                                    90.000000
 CELL| Numerically orthorhombic:                                             YES
 CELL| Periodicity                                                          NONE

 CELL_REF| Volume [angstrom^3]:                                      1000.000000
 CELL_REF| Vector a [angstrom    10.000     0.000     0.000   |a| =    10.000000
 CELL_REF| Vector b [angstrom     0.000    10.000     0.000   |b| =    10.000000
 CELL_REF| Vector c [angstrom     0.000     0.000    10.000   |c| =    10.000000
 CELL_REF| Angle (b,c), alpha [degree]:                                90.000000
 CELL_REF| Angle (a,c), beta  [degree]:                                90.000000
 CELL_REF| Angle (a,b), gamma [degree]:                                90.000000
 CELL_REF| Numerically orthorhombic:                                         YES
 CELL_REF| Periodicity                                                      NONE

 *******************************************************************************
 *******************************************************************************
 **                                                                           **
 **     #####                         ##              ##                      **
 **    ##   ##            ##          ##              ##                      **
 **   ##     ##                       ##            ######                    **
 **   ##     ##  ##   ##  ##   #####  ##  ##   ####   ##    #####    #####    **
 **   ##     ##  ##   ##  ##  ##      ## ##   ##      ##   ##   ##  ##   ##   **
 **   ##  ## ##  ##   ##  ##  ##      ####     ###    ##   ######   ######    **
 **    ##  ###   ##   ##  ##  ##      ## ##      ##   ##   ##       ##        **
 **     #######   #####   ##   #####  ##  ##  ####    ##    #####   ##        **
 **           ##                                                    ##        **
 **                                                                           **
 **                                                ... make the atoms dance   **
 **                                                                           **
 **            Copyright (C) by CP2K developers group (2000-2023)             **
 **                      J. Chem. Phys. 152, 194103 (2020)                    **
 **                                                                           **
 *******************************************************************************

 DFT| Spin restricted Kohn-Sham (RKS) calculation                            RKS
 DFT| Multiplicity                                                             1
 DFT| Number of spin states                                                    1
 DFT| Charge                                                                   0
 DFT| Self-interaction correction (SIC)                                       NO
 DFT| Cutoffs: density                                              1.000000E-10
 DFT|          gradient                                             1.000000E-10
 DFT|          tau                                                  1.000000E-10
 DFT|          cutoff_smoothing_range                               0.000000E+00
 DFT| XC density smoothing                                                  NONE
 DFT| XC derivatives                                                          PW

 FUNCTIONAL| PBE:
 FUNCTIONAL| J.P.Perdew, K.Burke, M.Ernzerhof, Phys. Rev. Letter, vol. 77, n 18,
 FUNCTIONAL|  pp. 3865-3868, (1996)sx=0.750sc=1.000{spin unpolarized}           


 QS| Method:                                                                GAPW
 QS| Density plane wave grid type                        NON-SPHERICAL FULLSPACE
 QS| Number of grid levels:                                                    5
 QS| Density cutoff [a.u.]:                                                600.0
 QS| Multi grid cutoff [a.u.]: 1) grid level                               600.0
 QS|                           2) grid level                               200.0
 QS|                           3) grid level                                66.7
 QS|                           4) grid level                                22.2
 QS|                           5) grid level                                 7.4
 QS| Grid level progression factor:                                          3.0
 QS| Relative density cutoff [a.u.]:                                        40.0
 QS| Interaction thresholds: eps_pgf_orb:                                1.0E-30
 QS|                         eps_filter_matrix:                          0.0E+00
 QS|                         eps_core_charge:                            1.0E-17
 QS|                         eps_rho_gspace:                             1.0E-15
 QS|                         eps_rho_rspace:                             1.0E-15
 QS|                         eps_gvg_rspace:                             3.2E-08
 QS|                         eps_ppl:                                    1.0E-02
 QS|                         eps_ppnl:                                   3.2E-10
 QS| GAPW|      One center basis from orbital basis primitives
 QS| GAPW|                   eps_fit:                                    1.0E-04
 QS| GAPW|                   eps_iso:                                    1.0E-12
 QS| GAPW|                   eps_svd:                                    1.0E-08
 QS| GAPW|                   eps_cpc:                                    1.0E-15
 QS| GAPW|   atom-r-grid: quadrature:                                     GC_LOG
 QS| GAPW|      atom-s-grid:  max l :                                          6
 QS| GAPW|      max_l_rho0 :                                                   2


 ATOMIC KIND INFORMATION

  1. Atomic kind: C                                     Number of atoms:       8

     Orbital Basis Set                                        Ahlrichs-def2-TZVP

       Number of orbital shell sets:                                          11
       Number of orbital shells:                                              11
       Number of primitive Cartesian functions:                               20
       Number of Cartesian basis functions:                                   36
       Number of spherical basis functions:                                   31
       Norm type:                                                              2

       Normalised Cartesian orbitals:

                        Set   Shell   Orbital            Exponent    Coefficient

                          1       1    1s            13575.349682       0.543591
                                                      2035.233368       1.014554
                                                       463.225624       1.731573
                                                       131.200196       2.691038
                                                        42.853016       3.604455
                                                        15.584186       3.702556

                          2       1    1s                6.206714       1.838354
                                                         2.576490       0.544758

                          3       1    1s                0.576963       0.471815

                          4       1    1s                0.229728       0.236494

                          5       1    1s                0.095164       0.122114

                          6       1    1px              34.697232       1.359665
                                                         7.958262       1.451259
                                                         2.378083       1.270923
                                                         0.814332       0.802572
                          6       1    1py              34.697232       1.359665
                                                         7.958262       1.451259
                                                         2.378083       1.270923
                                                         0.814332       0.802572
                          6       1    1pz              34.697232       1.359665
                                                         7.958262       1.451259
                                                         2.378083       1.270923
                                                         0.814332       0.802572

                          7       1    1px               0.288875       0.301876
                          7       1    1py               0.288875       0.301876
                          7       1    1pz               0.288875       0.301876

                          8       1    1px               0.100568       0.080727
                          8       1    1py               0.100568       0.080727
                          8       1    1pz               0.100568       0.080727

                          9       1    1dx2              1.097000       1.935401
                          9       1    1dxy              1.097000       3.352214
                          9       1    1dxz              1.097000       3.352214
                          9       1    1dy2              1.097000       1.935401
                          9       1    1dyz              1.097000       3.352214
                          9       1    1dz2              1.097000       1.935401

                         10       1    1dx2              0.318000       0.221644
                         10       1    1dxy              0.318000       0.383899
                         10       1    1dxz              0.318000       0.383899
                         10       1    1dy2              0.318000       0.221644
                         10       1    1dyz              0.318000       0.383899
                         10       1    1dz2              0.318000       0.221644

                         11       1    1fx3              0.761000       0.796288
                         11       1    1fx2y             0.761000       1.780553
                         11       1    1fx2z             0.761000       1.780553
                         11       1    1fxy2             0.761000       1.780553
                         11       1    1fxyz             0.761000       3.084008
                         11       1    1fxz2             0.761000       1.780553
                         11       1    1fy3              0.761000       0.796288
                         11       1    1fy2z             0.761000       1.780553
                         11       1    1fyz2             0.761000       1.780553
                         11       1    1fz3              0.761000       0.796288

       Atomic covalent radius [Angstrom]:                                  0.770

       Atomic van der Waals radius [Angstrom]:                             1.700

     The atoms of this atomic kind are PAW atoms (GAPW):
       Hard Gaussian function radius:                                      1.512
       Rho0 radius:                                                        1.512
       Maximum GTO radius used for PAW projector construction:            24.566

     GAPW Soft Basis Set                                 Ahlrichs-def2-TZVP_soft

       Number of orbital shell sets:                                          11
       Number of orbital shells:                                              11
       Number of primitive Cartesian functions:                               11
       Number of Cartesian basis functions:                                   36
       Number of spherical basis functions:                                   31
       Norm type:                                                              2

       Normalised Cartesian orbitals:

                        Set   Shell   Orbital            Exponent    Coefficient

                          1       1    1s         

                          2       1    1s                2.576490       0.544758

                          3       1    1s                0.576963       0.471815

                          4       1    1s                0.229728       0.236494

                          5       1    1s                0.095164       0.122114

                          6       1    1px               2.378083       1.270923
                                                         0.814332       0.802572
                          6       1    1py               2.378083       1.270923
                                                         0.814332       0.802572
                          6       1    1pz               2.378083       1.270923
                                                         0.814332       0.802572

                          7       1    1px               0.288875       0.301876
                          7       1    1py               0.288875       0.301876
                          7       1    1pz               0.288875       0.301876

                          8       1    1px               0.100568       0.080727
                          8       1    1py               0.100568       0.080727
                          8       1    1pz               0.100568       0.080727

                          9       1    1dx2              1.097000       1.935401
                          9       1    1dxy              1.097000       3.352214
                          9       1    1dxz              1.097000       3.352214
                          9       1    1dy2              1.097000       1.935401
                          9       1    1dyz              1.097000       3.352214
                          9       1    1dz2              1.097000       1.935401

                         10       1    1dx2              0.318000       0.221644
                         10       1    1dxy              0.318000       0.383899
                         10       1    1dxz              0.318000       0.383899
                         10       1    1dy2              0.318000       0.221644
                         10       1    1dyz              0.318000       0.383899
                         10       1    1dz2              0.318000       0.221644

                         11       1    1fx3              0.761000       0.796288
                         11       1    1fx2y             0.761000       1.780553
                         11       1    1fx2z             0.761000       1.780553
                         11       1    1fxy2             0.761000       1.780553
                         11       1    1fxyz             0.761000       3.084008
                         11       1    1fxz2             0.761000       1.780553
                         11       1    1fy3              0.761000       0.796288
                         11       1    1fy2z             0.761000       1.780553
                         11       1    1fyz2             0.761000       1.780553
                         11       1    1fz3              0.761000       0.796288

     AE Potential information for                                            ALL

       Description:                                       All-electron potential
                                          Krack, Parrinello, PCCP 2, 2105 (2000)

       Gaussian exponent of the core charge distribution:               4.109048
       Electronic configuration (s p d ...):                           4   2   0

  2. Atomic kind: N                                     Number of atoms:       2

     Orbital Basis Set                                        Ahlrichs-def2-TZVP

       Number of orbital shell sets:                                          11
       Number of orbital shells:                                              11
       Number of primitive Cartesian functions:                               20
       Number of Cartesian basis functions:                                   36
       Number of spherical basis functions:                                   31
       Norm type:                                                              2

       Normalised Cartesian orbitals:

                        Set   Shell   Orbital            Exponent    Coefficient

                          1       1    1s            19730.800647       0.695604
                                                      2957.895874       1.298610
                                                       673.221336       2.219088
                                                       190.682495       3.463661
                                                        62.295442       4.696756
                                                        22.654161       4.952251

                          2       1    1s                8.979148       2.388068
                                                         3.686300       0.733788

                          3       1    1s                0.846601       0.629027

                          4       1    1s                0.336471       0.314863

                          5       1    1s                0.136477       0.160031

                          6       1    1px              49.200381       2.126481
                                                        11.346791       2.327937
                                                         3.427397       2.048573
                                                         1.178553       1.260732
                          6       1    1py              49.200381       2.126481
                                                        11.346791       2.327937
                                                         3.427397       2.048573
                                                         1.178553       1.260732
                          6       1    1pz              49.200381       2.126481
                                                        11.346791       2.327937
                                                         3.427397       2.048573
                                                         1.178553       1.260732

                          7       1    1px               0.416422       0.476823
                          7       1    1py               0.416422       0.476823
                          7       1    1pz               0.416422       0.476823

                          8       1    1px               0.142608       0.124917
                          8       1    1py               0.142608       0.124917
                          8       1    1pz               0.142608       0.124917

                          9       1    1dx2              1.654000       3.970513
                          9       1    1dxy              1.654000       6.877130
                          9       1    1dxz              1.654000       6.877130
                          9       1    1dy2              1.654000       3.970513
                          9       1    1dyz              1.654000       6.877130
                          9       1    1dz2              1.654000       3.970513

                         10       1    1dx2              0.469000       0.437484
                         10       1    1dxy              0.469000       0.757744
                         10       1    1dxz              0.469000       0.757744
                         10       1    1dy2              0.469000       0.437484
                         10       1    1dyz              0.469000       0.757744
                         10       1    1dz2              0.469000       0.437484

                         11       1    1fx3              1.093000       1.798249
                         11       1    1fx2y             1.093000       4.021007
                         11       1    1fx2z             1.093000       4.021007
                         11       1    1fxy2             1.093000       4.021007
                         11       1    1fxyz             1.093000       6.964588
                         11       1    1fxz2             1.093000       4.021007
                         11       1    1fy3              1.093000       1.798249
                         11       1    1fy2z             1.093000       4.021007
                         11       1    1fyz2             1.093000       4.021007
                         11       1    1fz3              1.093000       1.798249

       Atomic covalent radius [Angstrom]:                                  0.750

       Atomic van der Waals radius [Angstrom]:                             1.550

     The atoms of this atomic kind are PAW atoms (GAPW):
       Hard Gaussian function radius:                                      1.512
       Rho0 radius:                                                        1.512
       Maximum GTO radius used for PAW projector construction:            24.566

     GAPW Soft Basis Set                                 Ahlrichs-def2-TZVP_soft

       Number of orbital shell sets:                                          11
       Number of orbital shells:                                              11
       Number of primitive Cartesian functions:                               11
       Number of Cartesian basis functions:                                   36
       Number of spherical basis functions:                                   31
       Norm type:                                                              2

       Normalised Cartesian orbitals:

                        Set   Shell   Orbital            Exponent    Coefficient

                          1       1    1s         

                          2       1    1s                3.686300       0.733788

                          3       1    1s                0.846601       0.629027

                          4       1    1s                0.336471       0.314863

                          5       1    1s                0.136477       0.160031

                          6       1    1px               3.427397       2.048573
                                                         1.178553       1.260732
                          6       1    1py               3.427397       2.048573
                                                         1.178553       1.260732
                          6       1    1pz               3.427397       2.048573
                                                         1.178553       1.260732

                          7       1    1px               0.416422       0.476823
                          7       1    1py               0.416422       0.476823
                          7       1    1pz               0.416422       0.476823

                          8       1    1px               0.142608       0.124917
                          8       1    1py               0.142608       0.124917
                          8       1    1pz               0.142608       0.124917

                          9       1    1dx2              1.654000       3.970513
                          9       1    1dxy              1.654000       6.877130
                          9       1    1dxz              1.654000       6.877130
                          9       1    1dy2              1.654000       3.970513
                          9       1    1dyz              1.654000       6.877130
                          9       1    1dz2              1.654000       3.970513

                         10       1    1dx2              0.469000       0.437484
                         10       1    1dxy              0.469000       0.757744
                         10       1    1dxz              0.469000       0.757744
                         10       1    1dy2              0.469000       0.437484
                         10       1    1dyz              0.469000       0.757744
                         10       1    1dz2              0.469000       0.437484

                         11       1    1fx3              1.093000       1.798249
                         11       1    1fx2y             1.093000       4.021007
                         11       1    1fx2z             1.093000       4.021007
                         11       1    1fxy2             1.093000       4.021007
                         11       1    1fxyz             1.093000       6.964588
                         11       1    1fxz2             1.093000       4.021007
                         11       1    1fy3              1.093000       1.798249
                         11       1    1fy2z             1.093000       4.021007
                         11       1    1fyz2             1.093000       4.021007
                         11       1    1fz3              1.093000       1.798249

     AE Potential information for                                            ALL

       Description:                                       All-electron potential
                                          Krack, Parrinello, PCCP 2, 2105 (2000)

       Gaussian exponent of the core charge distribution:               5.979100
       Electronic configuration (s p d ...):                           4   3   0

  3. Atomic kind: H                                     Number of atoms:       6

     Orbital Basis Set                                        Ahlrichs-def2-TZVP

       Number of orbital shell sets:                                           4
       Number of orbital shells:                                               4
       Number of primitive Cartesian functions:                                6
       Number of Cartesian basis functions:                                    6
       Number of spherical basis functions:                                    6
       Norm type:                                                              2

       Normalised Cartesian orbitals:

                        Set   Shell   Orbital            Exponent    Coefficient

                          1       1    1s               34.061341       0.255630
                                                         5.123575       0.461360
                                                         1.164663       0.681121

                          2       1    1s                0.327230       0.308355

                          3       1    1s                0.103072       0.129648

                          4       1    1px               0.800000       1.078456
                          4       1    1py               0.800000       1.078456
                          4       1    1pz               0.800000       1.078456

       Atomic covalent radius [Angstrom]:                                  0.320

       Atomic van der Waals radius [Angstrom]:                             1.090

     The atoms of this atomic kind are PAW atoms (GAPW):
       Hard Gaussian function radius:                                      1.200
       Rho0 radius:                                                        1.200
       Maximum GTO radius used for PAW projector construction:            24.566

     GAPW Soft Basis Set                                 Ahlrichs-def2-TZVP_soft

       Number of orbital shell sets:                                           4
       Number of orbital shells:                                               4
       Number of primitive Cartesian functions:                                5
       Number of Cartesian basis functions:                                    6
       Number of spherical basis functions:                                    6
       Norm type:                                                              2

       Normalised Cartesian orbitals:

                        Set   Shell   Orbital            Exponent    Coefficient

                          1       1    1s                5.123575       0.461360
                                                         1.164663       0.681121

                          2       1    1s                0.327230       0.308355

                          3       1    1s                0.103072       0.129648

                          4       1    1px               0.800000       1.078456
                          4       1    1py               0.800000       1.078456
                          4       1    1pz               0.800000       1.078456

     AE Potential information for                                            ALL

       Description:                                       All-electron potential
                                          Krack, Parrinello, PCCP 2, 2105 (2000)

       Gaussian exponent of the core charge distribution:              12.500000
       Electronic configuration (s p d ...):                           1   0   0


 MOLECULE KIND INFORMATION


 All atoms are their own molecule, skipping detailed information


 TOTAL NUMBERS AND MAXIMUM NUMBERS

  Total number of            - Atomic kinds:                                   3
                             - Atoms:                                         16
                             - Shell sets:                                   134
                             - Shells:                                       134
                             - Primitive Cartesian functions:                236
                             - Cartesian basis functions:                    396
                             - Spherical basis functions:                    346

  Maximum angular momentum of the orbital basis functions:                     3


 MODULE QUICKSTEP: ATOMIC COORDINATES IN ANGSTROM

   Atom Kind Element         X             Y             Z       Z(eff)     Mass
      1    1 C     6      5.000000      5.713603      4.928442   6.0000  12.0107
      2    1 C     6      5.000000      4.286397      4.928442   6.0000  12.0107
      3    1 C     6      5.000000      6.407462      6.161330   6.0000  12.0107
      4    1 C     6      5.000000      5.707541      7.341244   6.0000  12.0107
      5    1 C     6      5.000000      4.292459      7.341244   6.0000  12.0107
      6    1 C     6      5.000000      3.592538      6.161330   6.0000  12.0107
      7    2 N     7      5.000000      3.586221      3.760295   7.0000  14.0067
      8    2 N     7      5.000000      6.413779      3.760295   7.0000  14.0067
      9    1 C     6      5.000000      5.709006      2.655176   6.0000  12.0107
     10    1 C     6      5.000000      4.290994      2.655176   6.0000  12.0107
     11    3 H     1      5.000000      6.252250      1.714573   1.0000   1.0079
     12    3 H     1      5.000000      3.747750      1.714573   1.0000   1.0079
     13    3 H     1      5.000000      7.489909      6.135702   1.0000   1.0079
     14    3 H     1      5.000000      6.238692      8.285427   1.0000   1.0079
     15    3 H     1      5.000000      3.761308      8.285427   1.0000   1.0079
     16    3 H     1      5.000000      2.510091      6.135702   1.0000   1.0079



 SCF PARAMETERS         Density guess:                                   RESTART
                        --------------------------------------------------------
                        max_scf:                                              20
                        max_scf_history:                                       0
                        max_diis:                                              4
                        --------------------------------------------------------
                        eps_scf:                                        1.00E-07
                        eps_scf_history:                                0.00E+00
                        eps_diis:                                       1.00E-01
                        eps_eigval:                                     1.00E-05
                        --------------------------------------------------------
                        level_shift [a.u.]:                             0.000000
                        --------------------------------------------------------
                        Outer loop SCF in use 
                        No variables optimised in outer loop
                        eps_scf                                         1.00E-07
                        max_scf                                              200
                        No outer loop optimization
                        step_size                                       5.00E-01

 PW_GRID| Information for grid number                                          1
 PW_GRID| Grid distributed over                                   128 processors
 PW_GRID| Real space group dimensions                                   128    1
 PW_GRID| the grid is blocked:                                                NO
 PW_GRID| Cutoff [a.u.]                                                   1200.0
 PW_GRID| spherical cutoff:                                                   NO
 PW_GRID|   Bounds   1           -150     149                Points:         300
 PW_GRID|   Bounds   2           -150     149                Points:         300
 PW_GRID|   Bounds   3           -150     149                Points:         300
 PW_GRID| Volume element (a.u.^3)  0.2499E-03     Volume (a.u.^3)      6748.3346
 PW_GRID| Grid span                                                    FULLSPACE
 PW_GRID|   Distribution                         Average         Max         Min
 PW_GRID|   G-Vectors                           210937.5      211200      210900
 PW_GRID|   G-Rays                                 703.1         704         703
 PW_GRID|   Real Space Points                   210937.5      270000      180000

 PW_GRID| Information for grid number                                          2
 PW_GRID| Number of the reference grid                                         1
 PW_GRID| Grid distributed over                                   128 processors
 PW_GRID| Real space group dimensions                                   128    1
 PW_GRID| the grid is blocked:                                                NO
 PW_GRID| Cutoff [a.u.]                                                    600.0
 PW_GRID| spherical cutoff:                                                   NO
 PW_GRID|   Bounds   1           -108     107                Points:         216
 PW_GRID|   Bounds   2           -108     107                Points:         216
 PW_GRID|   Bounds   3           -108     107                Points:         216
 PW_GRID| Volume element (a.u.^3)  0.6696E-03     Volume (a.u.^3)      6748.3346
 PW_GRID| Grid span                                                    FULLSPACE
 PW_GRID|   Distribution                         Average         Max         Min
 PW_GRID|   G-Vectors                            78732.0       79056       78408
 PW_GRID|   G-Rays                                 364.5         366         363
 PW_GRID|   Real Space Points                    78732.0       93312       46656

 PW_GRID| Information for grid number                                          3
 PW_GRID| Number of the reference grid                                         2
 PW_GRID| Grid distributed over                                   128 processors
 PW_GRID| Real space group dimensions                                     8   16
 PW_GRID| the grid is blocked:                                                NO
 PW_GRID| Cutoff [a.u.]                                                    200.0
 PW_GRID| spherical cutoff:                                                   NO
 PW_GRID|   Bounds   1            -62      62                Points:         125
 PW_GRID|   Bounds   2            -62      62                Points:         125
 PW_GRID|   Bounds   3            -62      62                Points:         125
 PW_GRID| Volume element (a.u.^3)  0.3455E-02     Volume (a.u.^3)      6748.3346
 PW_GRID| Grid span                                                    FULLSPACE
 PW_GRID|   Distribution                         Average         Max         Min
 PW_GRID|   G-Vectors                            15258.8       15875       14750
 PW_GRID|   G-Rays                                 122.1         127         118
 PW_GRID|   Real Space Points                    15258.8       16000       13125

 PW_GRID| Information for grid number                                          4
 PW_GRID| Number of the reference grid                                         2
 PW_GRID| Grid distributed over                                   128 processors
 PW_GRID| Real space group dimensions                                     8   16
 PW_GRID| the grid is blocked:                                                NO
 PW_GRID| Cutoff [a.u.]                                                     66.7
 PW_GRID| spherical cutoff:                                                   NO
 PW_GRID|   Bounds   1            -36      35                Points:          72
 PW_GRID|   Bounds   2            -36      35                Points:          72
 PW_GRID|   Bounds   3            -36      35                Points:          72
 PW_GRID| Volume element (a.u.^3)  0.1808E-01     Volume (a.u.^3)      6748.3346
 PW_GRID| Grid span                                                    FULLSPACE
 PW_GRID|   Distribution                         Average         Max         Min
 PW_GRID|   G-Vectors                             2916.0        2952        2880
 PW_GRID|   G-Rays                                  40.5          41          40
 PW_GRID|   Real Space Points                     2916.0        3240        2592

 PW_GRID| Information for grid number                                          5
 PW_GRID| Number of the reference grid                                         2
 PW_GRID| Grid distributed over                                   128 processors
 PW_GRID| Real space group dimensions                                     8   16
 PW_GRID| the grid is blocked:                                                NO
 PW_GRID| Cutoff [a.u.]                                                     22.2
 PW_GRID| spherical cutoff:                                                   NO
 PW_GRID|   Bounds   1            -22      22                Points:          45
 PW_GRID|   Bounds   2            -22      22                Points:          45
 PW_GRID|   Bounds   3            -22      22                Points:          45
 PW_GRID| Volume element (a.u.^3)  0.7406E-01     Volume (a.u.^3)      6748.3346
 PW_GRID| Grid span                                                    FULLSPACE
 PW_GRID|   Distribution                         Average         Max         Min
 PW_GRID|   G-Vectors                              711.9         810         630
 PW_GRID|   G-Rays                                  15.8          18          14
 PW_GRID|   Real Space Points                      711.9         810         450

 PW_GRID| Information for grid number                                          6
 PW_GRID| Number of the reference grid                                         2
 PW_GRID| Grid distributed over                                   128 processors
 PW_GRID| Real space group dimensions                                     8   16
 PW_GRID| the grid is blocked:                                                NO
 PW_GRID| Cutoff [a.u.]                                                      7.4
 PW_GRID| spherical cutoff:                                                   NO
 PW_GRID|   Bounds   1            -12      11                Points:          24
 PW_GRID|   Bounds   2            -12      11                Points:          24
 PW_GRID|   Bounds   3            -12      11                Points:          24
 PW_GRID| Volume element (a.u.^3)  0.4882         Volume (a.u.^3)      6748.3346
 PW_GRID| Grid span                                                    FULLSPACE
 PW_GRID|   Distribution                         Average         Max         Min
 PW_GRID|   G-Vectors                              108.0         120          96
 PW_GRID|   G-Rays                                   4.5           5           4
 PW_GRID|   Real Space Points                      108.0         144          72

 POISSON| Solver                                          Martyna-Tuckerman (MT)
 POISSON| MT| Alpha                                                        7.000
 POISSON| MT| Relative cutoff                                                2.0
 POISSON| Periodicity                                                       NONE

 RS_GRID| Information for grid number                                          2
 RS_GRID|   Bounds   1           -108     107                Points:         216
 RS_GRID|   Bounds   2           -108     107                Points:         216
 RS_GRID|   Bounds   3           -108     107                Points:         216
 RS_GRID| Real space distribution over                                  4 groups
 RS_GRID| Real space distribution along direction                              1
 RS_GRID| Border size                                                         37
 RS_GRID| Real space distribution over                                  4 groups
 RS_GRID| Real space distribution along direction                              2
 RS_GRID| Border size                                                         37
 RS_GRID| Real space distribution over                                  8 groups
 RS_GRID| Real space distribution along direction                              3
 RS_GRID| Border size                                                         37
 RS_GRID|   Distribution                         Average         Max         Min
 RS_GRID|   Planes                                 128.0         128         128
 RS_GRID|   Distribution                         Average         Max         Min
 RS_GRID|   Planes                                 128.0         128         128
 RS_GRID|   Distribution                         Average         Max         Min
 RS_GRID|   Planes                                 101.0         101         101

 RS_GRID| Information for grid number                                          3
 RS_GRID|   Bounds   1            -62      62                Points:         125
 RS_GRID|   Bounds   2            -62      62                Points:         125
 RS_GRID|   Bounds   3            -62      62                Points:         125
 RS_GRID| Real space distribution over                                  4 groups
 RS_GRID| Real space distribution along direction                              1
 RS_GRID| Border size                                                         35
 RS_GRID| Real space distribution over                                  4 groups
 RS_GRID| Real space distribution along direction                              2
 RS_GRID| Border size                                                         35
 RS_GRID| Real space distribution over                                  8 groups
 RS_GRID| Real space distribution along direction                              3
 RS_GRID| Border size                                                         35
 RS_GRID|   Distribution                         Average         Max         Min
 RS_GRID|   Planes                                 101.2         102         101
 RS_GRID|   Distribution                         Average         Max         Min
 RS_GRID|   Planes                                 101.2         102         101
 RS_GRID|   Distribution                         Average         Max         Min
 RS_GRID|   Planes                                  85.6          86          85

 RS_GRID| Information for grid number                                          4
 RS_GRID|   Bounds   1            -36      35                Points:          72
 RS_GRID|   Bounds   2            -36      35                Points:          72
 RS_GRID|   Bounds   3            -36      35                Points:          72
 RS_GRID| Real space fully replicated
 RS_GRID| Group size                                                           1

 RS_GRID| Information for grid number                                          5
 RS_GRID|   Bounds   1            -22      22                Points:          45
 RS_GRID|   Bounds   2            -22      22                Points:          45
 RS_GRID|   Bounds   3            -22      22                Points:          45
 RS_GRID| Real space fully replicated
 RS_GRID| Group size                                                           1

 RS_GRID| Information for grid number                                          6
 RS_GRID|   Bounds   1            -12      11                Points:          24
 RS_GRID|   Bounds   2            -12      11                Points:          24
 RS_GRID|   Bounds   3            -12      11                Points:          24
 RS_GRID| Real space fully replicated
 RS_GRID| Group size                                                           1

  HFX_INFO| Replica ID:                                                        1
  HFX_INFO| FRACTION:                                               0.2500000000
  HFX_INFO| Interaction Potential:                                       COULOMB
  HFX_INFO| EPS_SCHWARZ:                                                 1.0E-10
  HFX_INFO| EPS_SCHWARZ_FORCES                                           1.0E-06
  HFX_INFO| EPS_STORAGE_SCALING:                                         1.0E+00
  HFX_INFO| NBINS:                                                            64
  HFX_INFO| BLOCK_SIZE:                                                        1
  HFX_INFO| Number of periodic shells considered:                           NONE
  HFX_INFO| Number of periodic cells considered:                            NONE


 Number of electrons:                                                         68
 Number of occupied orbitals:                                                 34
 Number of molecular orbitals:                                                34

 Number of orbital functions:                                                346
 Number of independent orbital functions:                                    346

 Extrapolation method: initial_guess


 SCF WAVEFUNCTION OPTIMIZATION

  ----------------------------------- OT ---------------------------------------
  Minimizer      : DIIS                : direct inversion
                                         in the iterative subspace
                                         using   7 DIIS vectors
                                         safer DIIS on
  Preconditioner : FULL_ALL            : diagonalization, state selective
  Precond_solver : DEFAULT
  stepsize       :    0.15000000                  energy_gap     :    0.08000000
  eps_taylor     :   0.10000E-15                  max_taylor     :             4
  ----------------------------------- OT ---------------------------------------

  Step     Update method      Time    Convergence         Total energy    Change
  ------------------------------------------------------------------------------

  HFX_MEM_INFO| Est. max. program size before HFX [MiB]:                     478
  HFX_MEM_INFO| Number of cart. primitive ERI's calculated:           8578227434
  HFX_MEM_INFO| Number of sph. ERI's calculated:                      1824980022
  HFX_MEM_INFO| Number of sph. ERI's stored in-core:                  1824980022
  HFX_MEM_INFO| Number of sph. ERI's stored on disk:                           0
  HFX_MEM_INFO| Number of sph. ERI's calculated on the fly:                    0
  HFX_MEM_INFO| Total memory consumption ERI's RAM [MiB]:                   4828
  HFX_MEM_INFO| Whereof max-vals [MiB]:                                       17
  HFX_MEM_INFO| Total compression factor ERI's RAM:                         2.88
  HFX_MEM_INFO| Total memory consumption ERI's disk [MiB]:                     0
  HFX_MEM_INFO| Total compression factor ERI's disk:                        0.00
  HFX_MEM_INFO| Size of density/Fock matrix [MiB]:                             0
  HFX_MEM_INFO| Size of buffers [MiB]:                                         0
  HFX_MEM_INFO| Est. max. program size after HFX  [MiB]:                     863

     1 OT DIIS     0.15E+00   40.0     0.00000002      -417.6157586109 -4.18E+02

  *** SCF run converged in     1 steps ***


  Electronic density on regular grids:        -49.0832586381       18.9167413619
  Core density on regular grids:               68.0000000000       -0.0000000000
  Hard and soft densities (Lebedev):         -103.8076412776      -84.8909060706
  Total Rho_soft + Rho1_hard - Rho1_soft      -67.9999938451
  Total charge density (r-space):               0.0000061549
  Total Rho_soft + Rho0_soft (g-space):         0.0000059441

  Overlap energy of the core charge distribution:               0.00001601015851
  Self energy of the core charge distribution:               -336.96397019199526
  Core Hamiltonian energy:                                    -70.25463039409465
  Hartree energy:                                             130.76054686633597
  Exchange-correlation energy:                                -16.88297721847483
  Hartree-Fock Exchange energy:                               -14.20901964362302

  GAPW| Exc from hard and soft atomic rho1:                   -27.93004823683599
  GAPW| local Eh = 1 center integrals:                        -82.13567580234951

  Total energy:                                              -417.61575861087880

  outer SCF iter =    1 RMS gradient =   0.24E-07 energy =       -417.6157586109
  outer SCF loop converged in   1 iterations or    1 steps


 !-----------------------------------------------------------------------------!
                     Mulliken Population Analysis

 #  Atom  Element  Kind  Atomic population                           Net charge
       1     C        1          5.868722                              0.131278
       2     C        1          5.868722                              0.131278
       3     C        1          6.315098                             -0.315098
       4     C        1          6.013019                             -0.013019
       5     C        1          6.013018                             -0.013018
       6     C        1          6.315098                             -0.315098
       7     N        2          7.201485                             -0.201485
       8     N        2          7.201485                             -0.201485
       9     C        1          5.988572                              0.011428
      10     C        1          5.988572                              0.011428
      11     H        3          0.887629                              0.112371
      12     H        3          0.887629                              0.112371
      13     H        3          0.826555                              0.173445
      14     H        3          0.898921                              0.101079
      15     H        3          0.898921                              0.101079
      16     H        3          0.826555                              0.173445
 # Total charge                             68.000000                 -0.000000

 !-----------------------------------------------------------------------------!

 !-----------------------------------------------------------------------------!
                           Hirshfeld Charges

  #Atom  Element  Kind  Ref Charge     Population                    Net charge
      1       C      1       6.000          5.909                         0.091
      2       C      1       6.000          5.909                         0.091
      3       C      1       6.000          6.477                        -0.477
      4       C      1       6.000          6.455                        -0.455
      5       C      1       6.000          6.455                        -0.455
      6       C      1       6.000          6.477                        -0.477
      7       N      2       7.000          7.300                        -0.300
      8       N      2       7.000          7.300                        -0.300
      9       C      1       6.000          6.326                        -0.326
     10       C      1       6.000          6.326                        -0.326
     11       H      3       1.000          0.513                         0.487
     12       H      3       1.000          0.513                         0.487
     13       H      3       1.000          0.503                         0.497
     14       H      3       1.000          0.512                         0.488
     15       H      3       1.000          0.512                         0.488
     16       H      3       1.000          0.503                         0.497

  Total Charge                                                            0.011
 !-----------------------------------------------------------------------------!

 *******************************************************************************
 **                                                                           **
 **         ######## #######   #######   ######## #######  ########           **
 **            ##    ##     ## ##     ## ##       ##   ##     ##              **
 **            ##    ##     ## ##     ## ######   #######     ##              **
 **            ##    ##     ## ##     ## ##       ##          ##              **
 **            ##    #######   #######   ##       ##          ##              **
 **                                                                           **
 *******************************************************************************
 KERNEL|                                                                    FULL
 FUNCTIONAL| PBE:
 FUNCTIONAL| J.P.Perdew, K.Burke, M.Ernzerhof, Phys. Rev. Letter, vol. 77, n 18,
 FUNCTIONAL|  pp. 3865-3868, (1996)sx=0.750sc=1.000{spin unpolarized}           
 KERNEL|                                                          Exact Exchange
 KERNEL| Spin symmetry of excitations                                    Triplet
 TDDFPT| Number of states calculated                                          10
 TDDFPT| Number of Davidson iterations                                        20
 TDDFPT| Davidson iteration convergence                                0.100E-07
 TDDFPT| Max. number of Krylov space vectors                                  60
 TDDFPT| Molecular Orbitals:        Spin       AOs       Occ      Virt     Total
 TDDFPT|                               1       346        34       312       346

 *******************************************************************************
 **                                                                           **
 **                            ####### ####### #######                        **
 **                        #   ##      ##   ## ##                             **
 **                       ###  ######  ##   ## ##                             **
 **                        #       ##  ##   ## ##                             **
 **                            ######  ####### #######                        **
 **                 Based on the xas module from Augustin Bussy               **
 *******************************************************************************
 
 -------------------------------------------------------------------------------
 -                      TDDFPT TRIPLET ENERGIES                                 -
 -------------------------------------------------------------------------------
 
 -------------------------------------------------------------------------------
 -                            TDDFPT Initial Guess                             -
 -------------------------------------------------------------------------------
          State         Occupied      ->      Virtual          Excitation
          number         orbital              orbital          energy (eV)
 -------------------------------------------------------------------------------
             1               34                   35              5.15679
             2               33                   35              5.16162
             3               32                   35              5.42207
             4               34                   36              6.45533
             5               33                   36              6.46017
             6               32                   36              6.72062
             7               31                   35              6.96940
             8               34                   37              7.22034
             9               33                   37              7.22518
            10               32                   37              7.48563

      Number of active states:                                      10608
 -------------------------------------------------------------------------------
 
 -------------------------------------------------------------------------------
 -                      TDDFPT WAVEFUNCTION OPTIMIZATION                       -
 -------------------------------------------------------------------------------

          Step            Time         Convergence           Conv. states
 -------------------------------------------------------------------------------

    State    Exc. energy (eV)      Convergence (eV)
        1       3.1459690            -2.0108E+00
        2       3.3692666            -1.7924E+00
        3       3.6712860            -1.7508E+00
        4       4.6903567            -1.7650E+00
        5       4.7770802            -1.6831E+00
        6       4.8453118            -1.8753E+00
        7       4.9815478            -1.9879E+00
        8       5.2761585            -1.9442E+00
        9       5.7105273            -1.5146E+00
       10       5.7159630            -1.7697E+00
 
             1           179.4          7.3896E-02                      0

    State    Exc. energy (eV)      Convergence (eV)
        1       2.9980091            -1.4796E-01
        2       3.1405468            -2.2872E-01
        3       3.5820558            -8.9230E-02
        4       4.5255589            -1.6480E-01
        5       4.5457221            -2.3136E-01
        6       4.6783536            -1.6696E-01
        7       4.8213370            -1.6021E-01
        8       4.8240995            -4.5206E-01
        9       5.4935514            -2.1698E-01
       10       5.6250881            -9.0875E-02
 
             2           181.0          1.6613E-02                      0

    State    Exc. energy (eV)      Convergence (eV)
        1       2.9967729            -1.2362E-03
        2       3.1374906            -3.0562E-03
        3       3.5785653            -3.4905E-03
        4       4.5213904            -4.1685E-03
        5       4.5409217            -4.8004E-03
        6       4.6727804            -5.5732E-03
        7       4.7546760            -6.6661E-02
        8       4.8231492            -9.5034E-04
        9       5.4137011            -7.9850E-02
       10       5.6197611            -5.3270E-03
 
             3           181.9          2.9344E-03                      0

    State    Exc. energy (eV)      Convergence (eV)
        1       2.9967612            -1.1703E-05
        2       3.1374622            -2.8457E-05
        3       3.5785117            -5.3595E-05
        4       4.5212398            -1.5065E-04
        5       4.5408338            -8.7936E-05
        6       4.6725639            -2.1649E-04
        7       4.7520779            -2.5981E-03
        8       4.8231378            -1.1389E-05
        9       5.4047602            -8.9409E-03
       10       5.6193823            -3.7878E-04
 
             4           185.3          3.2857E-04                      0

    State    Exc. energy (eV)      Convergence (eV)
        1       2.9967610            -1.8615E-07
        2       3.1374618            -4.0663E-07
        3       3.5785113            -3.5357E-07
        4       4.5212375            -2.3133E-06
        5       4.5408323            -1.4536E-06
        6       4.6725610            -2.9293E-06
        7       4.7520049            -7.3051E-05
        8       4.8231375            -3.0427E-07
        9       5.4045128            -2.4743E-04
       10       5.6193688            -1.3526E-05
 
             5           189.5          9.0928E-06                      1

    State    Exc. energy (eV)      Convergence (eV)
        1       2.9967610            -1.5920E-09
        2       3.1374618            -3.7601E-09
        3       3.5785113            -3.2832E-09
        4       4.5212374            -2.7703E-08
        5       4.5408323            -3.3998E-08
        6       4.6725609            -3.6043E-08
        7       4.7520036            -1.2710E-06
        8       4.8231375            -8.6818E-09
        9       5.4045094            -3.4182E-06
       10       5.6193683            -5.2884E-07
 
             6           140.2          1.2561E-07                      7
 ------------------------- Restart Davidson iterations -------------------------

    State    Exc. energy (eV)      Convergence (eV)
        1       2.9967610             5.2869E-15
        2       3.1374618             2.2658E-15
        3       3.5785113            -1.2840E-14
        4       4.5212374            -3.7763E-15
        5       4.5408323            -6.7974E-15
        6       4.6725609             7.5527E-16
        7       4.7520036             9.0632E-15
        8       4.8231375            -3.0211E-15
        9       5.4045094            -5.2869E-15
       10       5.6193683             4.5316E-15
 
             7           141.2          4.7184E-16                     10
 
 -------------------------------------------------------------------------------
 -  TDDFPT run converged in 7 iteration(s) 
 -------------------------------------------------------------------------------

 R-TDDFPT states of multiplicity 3
 Transition dipoles calculated using velocity formulation

         State    Excitation        Transition dipole (a.u.)        Oscillator
         number   energy (eV)       x           y           z     strength (a.u.)
         ------------------------------------------------------------------------
 TDDFPT|      1       2.99676   0.0000E+00  0.0000E+00  0.0000E+00   0.00000E+00
 TDDFPT|      2       3.13746   0.0000E+00  0.0000E+00  0.0000E+00   0.00000E+00
 TDDFPT|      3       3.57851   0.0000E+00  0.0000E+00  0.0000E+00   0.00000E+00
 TDDFPT|      4       4.52124   0.0000E+00  0.0000E+00  0.0000E+00   0.00000E+00
 TDDFPT|      5       4.54083   0.0000E+00  0.0000E+00  0.0000E+00   0.00000E+00
 TDDFPT|      6       4.67256   0.0000E+00  0.0000E+00  0.0000E+00   0.00000E+00
 TDDFPT|      7       4.75200   0.0000E+00  0.0000E+00  0.0000E+00   0.00000E+00
 TDDFPT|      8       4.82314   0.0000E+00  0.0000E+00  0.0000E+00   0.00000E+00
 TDDFPT|      9       5.40451   0.0000E+00  0.0000E+00  0.0000E+00   0.00000E+00
 TDDFPT|     10       5.61937   0.0000E+00  0.0000E+00  0.0000E+00   0.00000E+00

 TDDFPT : CheckSum  =  0.521211E+00
 
 -------------------------------------------------------------------------------
 -                            Excitation analysis                              -
 -------------------------------------------------------------------------------
        State             Occupied              Virtual             Excitation
        number             orbital              orbital             amplitude
 -------------------------------------------------------------------------------
             1   2.99676 eV
                                33                   35              -0.969461
                                33                   37               0.202964
                                31                   40               0.093371
                                31                   47               0.058896
             2   3.13746 eV
                                34                   35               0.941383
                                32                   36               0.182395
                                34                   37               0.182044
                                30                   37               0.124006
                                30                   35              -0.116025
                                29                   40              -0.101544
             3   3.57851 eV
                                32                   35              -0.985757
                                34                   36              -0.094413
                                29                   37               0.090552
                                29                   35              -0.068938
             4   4.52124 eV
                                32                   36              -0.958368
                                34                   35               0.223410
                                29                   40               0.090245
                                30                   35               0.089405
                                24                   47               0.054329
             5   4.54083 eV
                                31                   35               0.894069
                                33                   36               0.308755
                                31                   37              -0.218884
                                33                   40              -0.206049
                                33                   47              -0.083358
             6   4.67256 eV
                                34                   36              -0.969195
                                32                   37              -0.141099
                                34                   40              -0.115759
                                29                   35               0.106499
                                32                   35               0.085415
                                30                   40              -0.057522
             7   4.75200 eV
                                34                   37              -0.786167
                                30                   35              -0.580483
                                32                   40              -0.090750
                                24                   40              -0.082581
                                34                   35               0.078858
                                29                   36               0.077072
                                29                   47              -0.075417
                                30                   37               0.057007
             8   4.82314 eV
                                33                   36              -0.943386
                                31                   35               0.302453
                                31                   37              -0.093155
                                33                   47              -0.063696
             9   5.40451 eV
                                32                   37              -0.812347
                                29                   35               0.493145
                                34                   36               0.187132
                                34                   40              -0.167648
                                30                   36              -0.118841
                                32                   35              -0.072684
                                29                   37               0.064764
                                24                   35               0.052770
            10   5.61937 eV
                                33                   37               0.961809
                                33                   35               0.212236
                                28                   35               0.125819
                                28                   37               0.056374
                                31                   47               0.054066
 -------------------------------------------------------------------------------
 
 -------------------------------------------------------------------------------
 -                            Natural Orbital analysis                         -
 -------------------------------------------------------------------------------
   STATE NR.      1             2.99676 eV
     Particle-Hole state: 1   Spin:1     Eigenvalue: 0.98519   Sum Eigv: 0.98519
   STATE NR.      2             3.13746 eV
     Particle-Hole state: 1   Spin:1     Eigenvalue: 0.92920   Sum Eigv: 0.92920
     Particle-Hole state: 2   Spin:1     Eigenvalue: 0.03513   Sum Eigv: 0.96433
     Particle-Hole state: 3   Spin:1     Eigenvalue: 0.02126   Sum Eigv: 0.98560
   STATE NR.      3             3.57851 eV
     Particle-Hole state: 1   Spin:1     Eigenvalue: 0.97933   Sum Eigv: 0.97933
   STATE NR.      4             4.52124 eV
     Particle-Hole state: 1   Spin:1     Eigenvalue: 0.92358   Sum Eigv: 0.92358
     Particle-Hole state: 2   Spin:1     Eigenvalue: 0.06057   Sum Eigv: 0.98415
   STATE NR.      5             4.54083 eV
     Particle-Hole state: 1   Spin:1     Eigenvalue: 0.85009   Sum Eigv: 0.85009
     Particle-Hole state: 2   Spin:1     Eigenvalue: 0.14732   Sum Eigv: 0.99741
   STATE NR.      6             4.67256 eV
     Particle-Hole state: 1   Spin:1     Eigenvalue: 0.95511   Sum Eigv: 0.95511
     Particle-Hole state: 2   Spin:1     Eigenvalue: 0.03116   Sum Eigv: 0.98628
   STATE NR.      7             4.75200 eV
     Particle-Hole state: 1   Spin:1     Eigenvalue: 0.65346   Sum Eigv: 0.65346
     Particle-Hole state: 2   Spin:1     Eigenvalue: 0.31493   Sum Eigv: 0.96838
     Particle-Hole state: 3   Spin:1     Eigenvalue: 0.01590   Sum Eigv: 0.98428
   STATE NR.      8             4.82314 eV
     Particle-Hole state: 1   Spin:1     Eigenvalue: 0.89627   Sum Eigv: 0.89627
     Particle-Hole state: 2   Spin:1     Eigenvalue: 0.10082   Sum Eigv: 0.99709
   STATE NR.      9             5.40451 eV
     Particle-Hole state: 1   Spin:1     Eigenvalue: 0.68486   Sum Eigv: 0.68486
     Particle-Hole state: 2   Spin:1     Eigenvalue: 0.23288   Sum Eigv: 0.91774
     Particle-Hole state: 3   Spin:1     Eigenvalue: 0.07819   Sum Eigv: 0.99593
   STATE NR.     10             5.61937 eV
     Particle-Hole state: 1   Spin:1     Eigenvalue: 0.97972   Sum Eigv: 0.97972
 -------------------------------------------------------------------------------
 
[...]
 flops    31 x     6 x     2              6294240       0.0%    100.0%      0.0%
 flops    62 x    32 x    31              9840640       0.0%    100.0%      0.0%
 flops     6 x    34 x     6             13219200       0.0%    100.0%      0.0%
 flops     6 x     6 x    32             13644288       0.0%    100.0%      0.0%
 flops    31 x    24 x    31             13838400       0.0%    100.0%      0.0%
 flops    31 x     2 x     6             39327840       0.0%    100.0%      0.0%
 flops     6 x     2 x    31             39327840       0.0%    100.0%      0.0%
 flops    31 x    31 x     2             59620440       0.0%    100.0%      0.0%
 flops     6 x    32 x     6             75354624       0.0%    100.0%      0.0%
 flops     6 x    31 x    32            100707840       0.0%    100.0%      0.0%
 flops    31 x     6 x    32            100707840       0.0%    100.0%      0.0%
 flops    31 x    34 x     6            106243200       0.0%    100.0%      0.0%
 flops     6 x    34 x    31            106243200       0.0%    100.0%      0.0%
 flops    34 x    34 x     6            166464000       0.0%    100.0%      0.0%
 flops    31 x     2 x    31            338771720       0.0%    100.0%      0.0%
 flops    31 x    32 x     6            648529920       0.0%    100.0%      0.0%
 flops     6 x    32 x    31            648529920       0.0%    100.0%      0.0%
 flops    31 x    31 x    32            953927040       0.0%    100.0%      0.0%
 flops    31 x    34 x    31            954080800       0.0%    100.0%      0.0%
 flops    34 x    34 x    31           1433440000       0.0%    100.0%      0.0%
 flops    31 x    32 x    31           5586408320       0.0%    100.0%      0.0%
 flops inhomo. stacks                           0       0.0%      0.0%      0.0%
 flops total                        11.444869E+09       0.0%    100.0%      0.0%
 flops max/rank                      1.239626E+09       0.0%    100.0%      0.0%
 matmuls inhomo. stacks                         0       0.0%      0.0%      0.0%
 matmuls total                             605464       0.0%    100.0%      0.0%
 number of processed stacks                503890       0.0%    100.0%      0.0%
 average stack size                                     0.0       1.2       0.0
 marketing flops                    12.970244E+09
 -------------------------------------------------------------------------------
 # multiplications                           1224
 max memory usage/rank               1.295057E+09
 # max total images/rank                        2
 # max 3D layers                                1
 # MPI messages exchanged                 4543488
 MPI messages size (bytes):
  total size                        14.690882E+09
  min size                           0.000000E+00
  max size                          16.864000E+03
  average size                       3.233393E+03
 MPI breakdown and total messages size (bytes):
             size <=      128             2442034                  4774784
       128 < size <=     8192             1074214               2645358128
      8192 < size <=    32768             1027240              12040753280
     32768 < size <=   131072                   0                        0
    131072 < size <=  4194304                   0                        0
   4194304 < size <= 16777216                   0                        0
  16777216 < size                               0                        0
 -------------------------------------------------------------------------------

 *** WARNING in dbcsr_mm.F:291 :: Using a non-square number of MPI ranks ***
 *** might lead to poor performance. Used ranks: 128 Suggested: 121 256  ***

 -------------------------------------------------------------------------------
 -                                                                             -
 -                      DBCSR MESSAGE PASSING PERFORMANCE                      -
 -                                                                             -
 -------------------------------------------------------------------------------
 ROUTINE             CALLS      AVE VOLUME [Bytes]
 MP_Bcast               75                     12.
 MP_Allreduce         4765                      9.
 MP_Alltoall         26675                  41090.
 MP_ISend            76342                   3230.
 MP_IRecv            76372                   2978.
 -------------------------------------------------------------------------------

 -------------------------------------------------------------------------------
 -                                                                             -
 -                                DBM STATISTICS                               -
 -                                                                             -
 -------------------------------------------------------------------------------
    M  x    N  x    K                                          COUNT     PERCENT
 -------------------------------------------------------------------------------

 -------------------------------------------------------------------------------
 -                                                                             -
 -                                GRID STATISTICS                              -
 -                                                                             -
 -------------------------------------------------------------------------------
 LP    KERNEL             BACKEND                              COUNT     PERCENT
 1     collocate ortho    CPU                                 413280      13.42%
 1     integrate ortho    CPU                                 404670      13.14%
 2     collocate ortho    CPU                                 339264      11.02%
 2     integrate ortho    CPU                                 332196      10.79%
 0     collocate ortho    CPU                                 283392       9.21%
 0     integrate ortho    CPU                                 277488       9.01%
 3     collocate ortho    CPU                                 228960       7.44%
 3     integrate ortho    CPU                                 224190       7.28%
 2     collocate general  CPU                                 149504       4.86%
 2     integrate general  CPU                                 145408       4.72%
 4     collocate ortho    CPU                                  99936       3.25%
 4     integrate ortho    CPU                                  97854       3.18%
 5     collocate ortho    CPU                                  31680       1.03%
 5     integrate ortho    CPU                                  31020       1.01%
 6     collocate ortho    CPU                                   7920       0.26%
 6     integrate ortho    CPU                                   7755       0.25%
 0     collocate general  CPU                                   2048       0.07%
 0     integrate general  CPU                                   2048       0.07%
 -------------------------------------------------------------------------------

 MEMORY| Estimated peak process memory [MiB]                                1236

 -------------------------------------------------------------------------------
 ----                             MULTIGRID INFO                            ----
 -------------------------------------------------------------------------------
 count for grid        1:         946964          cutoff [a.u.]          600.00
 count for grid        2:         182145          cutoff [a.u.]          200.00
 count for grid        3:         200281          cutoff [a.u.]           66.67
 count for grid        4:          62281          cutoff [a.u.]           22.22
 count for grid        5:           3200          cutoff [a.u.]            7.41
 total gridlevel count  :        1394871

 -------------------------------------------------------------------------------
 -                                                                             -
 -                         MESSAGE PASSING PERFORMANCE                         -
 -                                                                             -
 -------------------------------------------------------------------------------

 ROUTINE             CALLS      AVE VOLUME [Bytes]
 MP_Group                6
 MP_Bcast             5430                 940568.
 MP_Allreduce        11670                  19642.
 MP_Sync              2041
 MP_Alltoall          4083                2630230.
 MP_SendRecv         54864                  11184.
 MP_ISendRecv       125349                  13552.
 MP_Wait            156502
 MP_comm_split          58
 MP_ISend            34070                 228912.
 MP_IRecv            36678                 212668.
 -------------------------------------------------------------------------------


 -------------------------------------------------------------------------------
 -                                                                             -
 -                           R E F E R E N C E S                               -
 -                                                                             -
 -------------------------------------------------------------------------------
 
 CP2K version 2023.2 (Development Version), the CP2K developers group (2023).
 CP2K is freely available from https://www.cp2k.org/ .

 Kuehne,Thomas D.; Iannuzzi,Marcella; Del Ben,Mauro;
 Rybkin,Vladimir V.; Seewald,Patrick; Stein,Frederick; Laino,Teodoro;
 Khaliullin,Rustam Z.; Schuett,Ole; Schiffmann,Florian; Golze,Dorothea;
 Wilhelm,Jan; Chulkov,Sergey; Bani-Hashemian,Mohammad Hossein;
 Weber,Valery; Borstnik,Urban; Taillefumier,Mathieu;
 Jakobovits,Alice Shoshana; Lazzaro,Alfio; Pabst,Hans; Mueller,Tiziano;
 Schade,Robert; Guidon,Manuel; Andermatt,Samuel; Holmberg,Nico;
 Schenter,Gregory K.; Hehn,Anna; Bussy,Augustin; Belleflamme,Fabian;
 Tabacchi,Gloria; Gloess,Andreas; Lass,Michael; Bethune,Iain;
 Mundy,Christopher J.; Plessl,Christian; Watkins,Matt;
 VandeVondele,Joost; Krack,Matthias; Hutter,Juerg. 
 The Journal of Chemical Physics, 152 (19), (2020). 
 CP2K: An electronic structure and molecular dynamics software package -
 Quickstep: Efficient and accurate electronic structure calculations.
 https://doi.org/10.1063/5.0007045

 Schuett, Ole; Messmer, Peter; Hutter, Juerg; VandeVondele, Joost. 
 Electronic Structure Calculations on Graphics Processing Units, John
 Wiley & Sons, Ltd, 173-190 (2016). 
 GPU-Accelerated Sparse Matrix-Matrix Multiplication for
 Linear Scaling Density Functional Theory.
 https://doi.org/10.1002/9781118670712.ch8

 Heinecke, A; Henry, G; Hutchinson, M; Pabst, H. 
 Proceedings of Intl. Supercomputing Conference, 981-991 (2016). 
 LIBXSMM: Accelerating Small Matrix Multiplications
 by Runtime Code Generation.
 https://doi.org/10.1109/SC.2016.83

 Borstnik, U; VandeVondele, J; Weber, V; Hutter, J. 
 PARALLEL COMPUTING, 40 (5-6), 47-58 (2014). 
 Sparse matrix multiplication: The distributed block-compressed sparse
 row library.
 https://doi.org/10.1016/j.parco.2014.03.012

 Hutter, J; Iannuzzi, M; Schiffmann, F; VandeVondele, J. 
 WIREs Comput Mol Sci., 4 (1), 15-25 (2014). 
 CP2K: atomistic simulations of condensed matter systems.
 https://doi.org/10.1002/wcms.1159

 Guidon, M; Hutter, J; VandeVondele, J. 
 JOURNAL OF CHEMICAL THEORY AND COMPUTATION, 5 (11), 3010-3021 (2009). 
 Robust Periodic Hartree-Fock Exchange for Large-Scale Simulations Using
 Gaussian Basis Sets.
 https://doi.org/10.1021/ct900494g

 Guidon, M; Schiffmann, F; Hutter, J; VandeVondele, J. 
 JOURNAL OF CHEMICAL PHYSICS, 128 (21), 214104 (2008). 
 Ab initio molecular dynamics using hybrid density functionals.
 https://doi.org/10.1063/1.2931945

 Frigo, M; Johnson, SG. 
 PROCEEDINGS OF THE IEEE, 93 (2), 216-231 (2005). 
 The design and implementation of FFTW3.
 https://doi.org/10.1109/JPROC.2004.840301

 Iannuzzi, M; Chassaing, T; Wallman, T; Hutter, J. 
 CHIMIA, 59 (7-8), 499-503 (2005). 
 Ground and excited state density functional calculations with the
 Gaussian and augmented-plane-wave method.
 https://doi.org/10.2533/000942905777676164

 VandeVondele, J; Hutter, J. 
 JOURNAL OF CHEMICAL PHYSICS, 118 (10), 4365-4369 (2003). 
 An efficient orbital transformation method for electronic structure
 calculations.
 https://doi.org/10.1063/1.1543154

 Martin,Richard L.. 
 The Journal of Chemical Physics, 118 (11), 4775-4777 (2003). 
 Natural transition orbitals.
 https://doi.org/10.1063/1.1558471

 Lippert, G; Hutter, J; Parrinello, M. 
 THEORETICAL CHEMISTRY ACCOUNTS, 103 (2), 124-140 (1999). 
 The Gaussian and augmented-plane-wave density functional method for ab
 initio molecular dynamics simulations.
 https://doi.org/10.1007/s002140050523

 Krack, M; Parrinello, M. 
 PHYSICAL CHEMISTRY CHEMICAL PHYSICS, 2 (10), 2105-2112 (2000). 
 All-electron ab-initio molecular dynamics.
 https://doi.org/10.1039/b001167n

 Martyna, GJ; Tuckerman, ME. 
 JOURNAL OF CHEMICAL PHYSICS, 110 (6), 2810-2821 (1999). 
 A reciprocal space based method for treating long range interactions in
 ab initio and force-field-based calculations in clusters.
 https://doi.org/10.1063/1.477923

 Perdew, JP; Burke, K; Ernzerhof, M. 
 PHYSICAL REVIEW LETTERS, 77 (18), 3865-3868 (1996). 
 Generalized gradient approximation made simple.
 https://doi.org/10.1103/PhysRevLett.77.3865


 -------------------------------------------------------------------------------
 -                                                                             -
 -                                T I M I N G                                  -
 -                                                                             -
 -------------------------------------------------------------------------------
 SUBROUTINE                       CALLS  ASD         SELF TIME        TOTAL TIME
                                MAXIMUM       AVERAGE  MAXIMUM  AVERAGE  MAXIMUM
 CP2K                                 1  1.0    0.065    0.175 2724.587 2724.593
 qs_energies                          1  2.0    0.000    0.011 2722.567 2722.589
 qs_energies_properties               1  3.0    0.000    0.000 2672.842 2672.863
 tddfpt                               1  4.0    0.001    0.014 2672.842 2672.863
 tddfpt_soc_energies                  1  5.0    0.010    0.058 2664.099 2664.126
 tddfpt_energies                      2  6.0    0.000    0.001 2612.322 2612.342
 tddfpt_davidson_solver               4  7.0    0.006    0.023 2489.713 2489.736
 tddfpt_compute_Aop_evects           14  8.0    0.000    0.000 2003.480 2003.588
 cp_dbcsr_sm_fm_multiply            880  9.5    0.013    0.037 1210.821 1217.085
 fhxc_kernel                         14  9.0    0.004    0.015 1139.268 1139.409
 dbcsr_multiply_generic            1224 11.3    0.086    0.129  802.721  814.771
 tddfpt_apply_hfx                    14  9.0    0.003    0.010  657.503  657.589
 dbcsr_complete_redistribute       2801 11.5    0.106    0.174  589.261  598.843
 cp_dbcsr_sm_fm_multiply_core       880 10.5    0.002    0.002  531.867  542.568
 multiply_cannon                   1224 12.3    3.283    3.683  486.596  500.615
 multiply_cannon_loop              1224 13.3    0.646    0.857  433.973  449.767
 copy_dbcsr_to_fm                   924 10.4    0.009    0.046  435.240  445.830
 multiply_cannon_multrec          19584 14.3  343.938  390.734  343.944  390.738
 pw_transfer                       3138 12.5    0.096    0.143  382.251  384.072
 fft_wrap_pw1pw2                   2923 13.6    0.009    0.019  381.906  383.732
 copy_fm_to_dbcsr                  1873 10.6    0.005    0.016  376.638  383.395
 fft3d_ps                          2923 15.6    8.208    9.259  379.393  381.473
 tddfpt_orthonormalize_psi1_psi      16  7.9    0.008    0.047  367.533  371.063
 mp_alltoall_i22                   3725 12.5  269.788  285.026  269.788  285.026
 cp_dbcsr_plus_fm_fm_t_native       141 10.0    0.002    0.012  280.982  283.282
 mp_alltoall_d11v                 11460 12.8  256.019  277.352  256.019  277.352
 mp_waitall_1                    267442 14.5  225.317  262.300  225.317  262.300
 qs_rho_update_rho_low              144  9.9    0.008    0.023  258.843  261.002
 dbcsr_desymmetrize_deep            924 11.4    0.014    0.056  222.670  234.513
 mp_alltoall_z22v                  2923 17.6  227.350  231.358  227.350  231.358
 calculate_rho_elec                 144 10.9    0.034    0.069  226.541  228.859
 fft_wrap_pw1pw2_600               1782 14.6    1.171    1.367  207.450  209.602
 tddfpt_apply_energy_diff            14  9.0    0.001    0.001  206.709  206.783
 integrate_v_rspace                 141 10.0    0.003    0.010  193.240  195.022
 density_rs2pw                      144 11.9    0.005    0.023  192.663  195.006
 mp_sum_l                          4706 11.3  180.021  183.751  180.021  183.751
 potential_pw2rs                    141 11.0    0.006    0.019  182.636  183.255
 integrate_four_center              281 11.0    6.353   10.015  176.674  178.643
 tddft_hfx_matrix                   280 10.0    0.009    0.020  169.361  171.318
 mp_alltoall_i11v                  9327 12.5  158.715  165.340  158.715  165.340
 cp_fm_trace_a1b1t1_aa             3880  9.0    8.481   11.694  160.224  162.838
 mp_sum_dv                         4178 10.0  153.208  157.065  153.208  157.065
 tddfpt_apply_xc_analytic           140 10.0    0.084    0.148  141.814  142.182
 tddfpt_compute_residual_vects       10  8.0    0.000    0.001  134.852  135.092
 xc_pw_derive                      1065 11.8    0.006    0.006  122.962  124.218
 make_m2s                          2448 12.3    0.022    0.032  112.135  116.570
 make_images                       2448 13.3    6.929    7.717  109.638  113.576
 x_to_yz                            998 16.2    3.195    3.670  109.837  110.842
 multiply_cannon_metrocomm3       19584 14.3    0.031    0.059   73.299  107.622
 mp_alltoall_z11v                   855 17.5  102.912  104.488  102.912  104.488
 mp_cart_sub                       1858 12.4   94.508   98.947   94.508   98.947
 make_images_sizes                 2448 14.3    0.003    0.013   89.433   94.547
 mp_alltoall_i44                   2448 15.3   89.430   94.534   89.430   94.534
 yz_to_x                            785 17.2    0.207    0.279   89.362   91.934
 mp_sync                           2041 14.0   79.946   88.284   79.946   88.284
 transfer_rs2pw                     794 12.8    0.005    0.026   82.236   84.909
 transfer_pw2rs                     777 12.0    0.003    0.019   84.046   84.522
 mp_waitany                       23510 14.3   74.606   78.716   74.606   78.716
 tddfpt_print_nto_analysis            2  7.0    0.003    0.013   74.619   75.033
 xc_calc_2nd_deriv_analytical       700 11.2    2.885    3.575   71.457   72.065
 xz_to_yz                           576 16.9    1.513    1.820   69.502   70.664
 yz_to_xz                           564 16.0    1.463    1.774   68.759   69.937
 hybrid_alltoall_any               3372 14.5    0.035    0.250   63.304   69.599
 xc_pw_divergence                   141 12.0    0.002    0.002   68.330   69.486
 integrate_four_center_getP         281 12.0    0.065    0.100   63.511   64.899
 mp_cart_create                     933 12.4   60.150   64.539   60.150   64.539
 -------------------------------------------------------------------------------

 The number of warnings for this run is : 3
 
 -------------------------------------------------------------------------------
  **** **** ******  **  PROGRAM ENDED AT                 2023-12-06 14:55:33.084
 ***** ** ***  *** **   PROGRAM RAN ON                               nesh-srp150
 **    ****   ******    PROGRAM RAN BY                                  suphc355
 ***** **    ** ** **   PROGRAM PROCESS ID                               1991940
  **** **  *******  **  PROGRAM STOPPED IN /gxfs_work/cau/suphc355/benchmark_pbe
                                           0/pbe0_bm_ae/quinoxaline
