 
 Possible matches for unknown subsection 
 
 CENTER_COORDNINATES
 
   subsection CENTER_COORDINATES in section %__ROOT__%FORCE_EVAL%SUBSYS%TOPOLOGY score:  109
   keyword COORDINATE in section %__ROOT__%FORCE_EVAL%SUBSYS%TOPOLOGY score:  101
   enum GENERATE in section %__ROOT__%FORCE_EVAL%SUBSYS%TOPOLOGY for keyword CONN_FILE_FORMAT score:  98
   enum GENERATE in section %__ROOT__%FORCE_EVAL%SUBSYS%TOPOLOGY for keyword CONNECTIVITY score:  98
   subsection GENERATE in section %__ROOT__%FORCE_EVAL%SUBSYS%TOPOLOGY score:  98

 *******************************************************************************
 *   ___                                                                       *
 *  /   \                                                                      *
 * [ABORT]                                                                     *
 *  \___/       unknown subsection CENTER_COORDNINATES of section TOPOLOGY     *
 *    |                                                                        *
 *  O/|                                                                        *
 * /| |                                                                        *
 * / \                                               input/input_parsing.F:185 *
 *******************************************************************************


 ===== Routine Calling Stack ===== 

            5 section_vals_parse
            4 section_vals_parse
            3 section_vals_parse
            2 section_vals_parse
            1 read_input
 DBCSR| CPU Multiplication driver                                           XSMM (U)
 DBCSR| Multrec recursion limit                                              512 (U)
 DBCSR| Multiplication stack size                                           1000 (D)
 DBCSR| Maximum elements for images                                    UNLIMITED (U)
 DBCSR| Multiplicative factor virtual images                                   1 (U)
 DBCSR| Use multiplication densification                                       T (D)
 DBCSR| Multiplication size stacks                                             3 (U)
 DBCSR| Use memory pool for CPU allocation                                     F (U)
 DBCSR| Number of 3D layers                                               SINGLE (U)
 DBCSR| Use MPI memory allocation                                              F (U)
 DBCSR| Use RMA algorithm                                                      F (U)
 DBCSR| Use Communication thread                                               T (U)
 DBCSR| Communication thread load                                             83 (D)
 DBCSR| MPI: My process id                                                     0
 DBCSR| MPI: Number of processes                                              64
 DBCSR| OMP: Current number of threads                                         2
 DBCSR| OMP: Max number of threads                                             2
 DBCSR| Split modifier for TAS multiplication algorithm                  1.0E+00 (U)


  **** **** ******  **  PROGRAM STARTED AT               2023-07-03 14:55:57.262
 ***** ** ***  *** **   PROGRAM STARTED ON                                  n191
 **    ****   ******    PROGRAM STARTED BY                              suphc355
 ***** **    ** ** **   PROGRAM PROCESS ID                               1335885
  **** **  *******  **  PROGRAM STARTED IN /work_beegfs/suphc355/pbe0_bm_final/o
                                           _aren/cp2k

 CP2K| version string:                 CP2K version 2023.1 (Development Version)
 CP2K| source code revision number:                                  git:5b5a2b7
 CP2K| cp2kflags: omp libint fftw3 libxc parallel mpi_f08 scalapack cosma xsmm s
 CP2K|            pglib libvori libbqb
 CP2K| is freely available from                            https://www.cp2k.org/
 CP2K| Program compiled at                         Thu Jun 29 10:57:48 CEST 2023
 CP2K| Program compiled on                                           caucluster2
 CP2K| Program compiled for                                                local
 CP2K| Data directory path              /zfshome/suphc355/software/cp2k_dev/data
 CP2K| Input file name                                                   les.inp
 
 GLOBAL| Force Environment number                                              1
 GLOBAL| Basis set file name                                     EMSL_BASIS_SETS
 GLOBAL| Potential file name                                           POTENTIAL
 GLOBAL| MM Potential file name                                     MM_POTENTIAL
 GLOBAL| Coordinate file name                                            lit.xyz
 GLOBAL| Method name                                                        CP2K
 GLOBAL| Project name                                               benzyne_less
 GLOBAL| Run type                                                         ENERGY
 GLOBAL| FFT library                                                       FFTW3
 GLOBAL| Diagonalization library                                       ScaLAPACK
 GLOBAL| DGEMM library                                                      BLAS
 GLOBAL| Orthonormality check for eigenvectors                          DISABLED
 GLOBAL| Matrix multiplication library                                     COSMA
 GLOBAL| All-to-all communication in single precision                          F
 GLOBAL| FFTs using library dependent lengths                                  F
 GLOBAL| Grid backend                                                       AUTO
 GLOBAL| Global print level                                               MEDIUM
 GLOBAL| MPI I/O enabled                                                       T
 GLOBAL| Total number of message passing processes                            64
 GLOBAL| Number of threads for this process                                    2
 GLOBAL| This output is from process                                           0
 GLOBAL| Stack size for threads created by OpenMP (OMP_STACKSIZE)        default
 GLOBAL| CPU model name                          AMD EPYC 7313 16-Core Processor
 GLOBAL| CPUID                                                              1002

 MEMORY| system memory details [Kb]
 MEMORY|                        rank 0           min           max       average
 MEMORY| MemTotal            528224476     528224476     528224476     528224476
 MEMORY| MemFree             511322428     501412576     513037028     506923388
 MEMORY| Buffers                529944        216884        529944        267010
 MEMORY| Cached                2802480       2193484       9614780       7379317
 MEMORY| Slab                  3562332       3150696       6198832       4484453
 MEMORY| SReclaimable          1042088        576328       1407896       1001439
 MEMORY| MemLikelyFree       515696940     512506044     521242116     515571155


 *** Fundamental physical constants (SI units) ***

 *** Literature: B. J. Mohr and B. N. Taylor,
 ***             CODATA recommended values of the fundamental physical
 ***             constants: 2006, Web Version 5.1
 ***             http://physics.nist.gov/constants

 Speed of light in vacuum [m/s]                             2.99792458000000E+08
 Magnetic constant or permeability of vacuum [N/A**2]       1.25663706143592E-06
 Electric constant or permittivity of vacuum [F/m]          8.85418781762039E-12
 Planck constant (h) [J*s]                                  6.62606896000000E-34
 Planck constant (h-bar) [J*s]                              1.05457162825177E-34
 Elementary charge [C]                                      1.60217648700000E-19
 Electron mass [kg]                                         9.10938215000000E-31
 Electron g factor [ ]                                     -2.00231930436220E+00
 Proton mass [kg]                                           1.67262163700000E-27
 Fine-structure constant                                    7.29735253760000E-03
 Rydberg constant [1/m]                                     1.09737315685270E+07
 Avogadro constant [1/mol]                                  6.02214179000000E+23
 Boltzmann constant [J/K]                                   1.38065040000000E-23
 Atomic mass unit [kg]                                      1.66053878200000E-27
 Bohr radius [m]                                            5.29177208590000E-11

 *** Conversion factors ***

 [u] -> [a.u.]                                              1.82288848426455E+03
 [Angstrom] -> [Bohr] = [a.u.]                              1.88972613288564E+00
 [a.u.] = [Bohr] -> [Angstrom]                              5.29177208590000E-01
 [a.u.] -> [s]                                              2.41888432650478E-17
 [a.u.] -> [fs]                                             2.41888432650478E-02
 [a.u.] -> [J]                                              4.35974393937059E-18
 [a.u.] -> [N]                                              8.23872205491840E-08
 [a.u.] -> [K]                                              3.15774647902944E+05
 [a.u.] -> [kJ/mol]                                         2.62549961709828E+03
 [a.u.] -> [kcal/mol]                                       6.27509468713739E+02
 [a.u.] -> [Pa]                                             2.94210107994716E+13
 [a.u.] -> [bar]                                            2.94210107994716E+08
 [a.u.] -> [atm]                                            2.90362800883016E+08
 [a.u.] -> [eV]                                             2.72113838565563E+01
 [a.u.] -> [Hz]                                             6.57968392072181E+15
 [a.u.] -> [1/cm] (wave numbers)                            2.19474631370540E+05
 [a.u./Bohr**2] -> [1/cm]                                   5.14048714338585E+03
 

 CELL_TOP| Volume [angstrom^3]:                                      1000.000000
 CELL_TOP| Vector a [angstrom    10.000     0.000     0.000   |a| =    10.000000
 CELL_TOP| Vector b [angstrom     0.000    10.000     0.000   |b| =    10.000000
 CELL_TOP| Vector c [angstrom     0.000     0.000    10.000   |c| =    10.000000
 CELL_TOP| Angle (b,c), alpha [degree]:                                90.000000
 CELL_TOP| Angle (a,c), beta  [degree]:                                90.000000
 CELL_TOP| Angle (a,b), gamma [degree]:                                90.000000
 CELL_TOP| Numerically orthorhombic:                                         YES
 CELL_TOP| Periodicity                                                      NONE

 CELL| Volume [angstrom^3]:                                          1000.000000
 CELL| Vector a [angstrom]:      10.000     0.000     0.000   |a| =    10.000000
 CELL| Vector b [angstrom]:       0.000    10.000     0.000   |b| =    10.000000
 CELL| Vector c [angstrom]:       0.000     0.000    10.000   |c| =    10.000000
 CELL| Angle (b,c), alpha [degree]:                                    90.000000
 CELL| Angle (a,c), beta  [degree]:                                    90.000000
 CELL| Angle (a,b), gamma [degree]:                                    90.000000
 CELL| Numerically orthorhombic:                                             YES
 CELL| Periodicity                                                          NONE

 CELL_REF| Volume [angstrom^3]:                                      1000.000000
 CELL_REF| Vector a [angstrom    10.000     0.000     0.000   |a| =    10.000000
 CELL_REF| Vector b [angstrom     0.000    10.000     0.000   |b| =    10.000000
 CELL_REF| Vector c [angstrom     0.000     0.000    10.000   |c| =    10.000000
 CELL_REF| Angle (b,c), alpha [degree]:                                90.000000
 CELL_REF| Angle (a,c), beta  [degree]:                                90.000000
 CELL_REF| Angle (a,b), gamma [degree]:                                90.000000
 CELL_REF| Numerically orthorhombic:                                         YES
 CELL_REF| Periodicity                                                      NONE

 *******************************************************************************
 *******************************************************************************
 **                                                                           **
 **     #####                         ##              ##                      **
 **    ##   ##            ##          ##              ##                      **
 **   ##     ##                       ##            ######                    **
 **   ##     ##  ##   ##  ##   #####  ##  ##   ####   ##    #####    #####    **
 **   ##     ##  ##   ##  ##  ##      ## ##   ##      ##   ##   ##  ##   ##   **
 **   ##  ## ##  ##   ##  ##  ##      ####     ###    ##   ######   ######    **
 **    ##  ###   ##   ##  ##  ##      ## ##      ##   ##   ##       ##        **
 **     #######   #####   ##   #####  ##  ##  ####    ##    #####   ##        **
 **           ##                                                    ##        **
 **                                                                           **
 **                                                ... make the atoms dance   **
 **                                                                           **
 **            Copyright (C) by CP2K developers group (2000-2023)             **
 **                      J. Chem. Phys. 152, 194103 (2020)                    **
 **                                                                           **
 *******************************************************************************

 DFT| Spin restricted Kohn-Sham (RKS) calculation                            RKS
 DFT| Multiplicity                                                             1
 DFT| Number of spin states                                                    1
 DFT| Charge                                                                   0
 DFT| Self-interaction correction (SIC)                                       NO
 DFT| Cutoffs: density                                              1.000000E-10
 DFT|          gradient                                             1.000000E-10
 DFT|          tau                                                  1.000000E-10
 DFT|          cutoff_smoothing_range                               0.000000E+00
 DFT| XC density smoothing                                                  NONE
 DFT| XC derivatives                                                          PW

 FUNCTIONAL| PBE:
 FUNCTIONAL| J.P.Perdew, K.Burke, M.Ernzerhof, Phys. Rev. Letter, vol. 77, n 18,
 FUNCTIONAL|  pp. 3865-3868, (1996)sx=0.750sc=1.000{spin unpolarized}           


 QS| Method:                                                                GAPW
 QS| Density plane wave grid type                        NON-SPHERICAL FULLSPACE
 QS| Number of grid levels:                                                    5
 QS| Density cutoff [a.u.]:                                                600.0
 QS| Multi grid cutoff [a.u.]: 1) grid level                               600.0
 QS|                           2) grid level                               200.0
 QS|                           3) grid level                                66.7
 QS|                           4) grid level                                22.2
 QS|                           5) grid level                                 7.4
 QS| Grid level progression factor:                                          3.0
 QS| Relative density cutoff [a.u.]:                                        40.0
 QS| Interaction thresholds: eps_pgf_orb:                                1.0E-30
 QS|                         eps_filter_matrix:                          0.0E+00
 QS|                         eps_core_charge:                            1.0E-17
 QS|                         eps_rho_gspace:                             1.0E-15
 QS|                         eps_rho_rspace:                             1.0E-15
 QS|                         eps_gvg_rspace:                             3.2E-08
 QS|                         eps_ppl:                                    1.0E-02
 QS|                         eps_ppnl:                                   3.2E-10
 QS| GAPW|      One center basis from orbital basis primitives
 QS| GAPW|                   eps_fit:                                    1.0E-04
 QS| GAPW|                   eps_iso:                                    1.0E-12
 QS| GAPW|                   eps_svd:                                    1.0E-08
 QS| GAPW|                   eps_cpc:                                    1.0E-15
 QS| GAPW|   atom-r-grid: quadrature:                                     GC_LOG
 QS| GAPW|      atom-s-grid:  max l :                                          6
 QS| GAPW|      max_l_rho0 :                                                   2


 ATOMIC KIND INFORMATION

  1. Atomic kind: C                                     Number of atoms:       6

     Orbital Basis Set                                        Ahlrichs-def2-TZVP

       Number of orbital shell sets:                                          11
       Number of orbital shells:                                              11
       Number of primitive Cartesian functions:                               20
       Number of Cartesian basis functions:                                   36
       Number of spherical basis functions:                                   31
       Norm type:                                                              2

       Normalised Cartesian orbitals:

                        Set   Shell   Orbital            Exponent    Coefficient

                          1       1    1s            13575.349682       0.543591
                                                      2035.233368       1.014554
                                                       463.225624       1.731573
                                                       131.200196       2.691038
                                                        42.853016       3.604455
                                                        15.584186       3.702556

                          2       1    1s                6.206714       1.838354
                                                         2.576490       0.544758

                          3       1    1s                0.576963       0.471815

                          4       1    1s                0.229728       0.236494

                          5       1    1s                0.095164       0.122114

                          6       1    1px              34.697232       1.359665
                                                         7.958262       1.451259
                                                         2.378083       1.270923
                                                         0.814332       0.802572
                          6       1    1py              34.697232       1.359665
                                                         7.958262       1.451259
                                                         2.378083       1.270923
                                                         0.814332       0.802572
                          6       1    1pz              34.697232       1.359665
                                                         7.958262       1.451259
                                                         2.378083       1.270923
                                                         0.814332       0.802572

                          7       1    1px               0.288875       0.301876
                          7       1    1py               0.288875       0.301876
                          7       1    1pz               0.288875       0.301876

                          8       1    1px               0.100568       0.080727
                          8       1    1py               0.100568       0.080727
                          8       1    1pz               0.100568       0.080727

                          9       1    1dx2              1.097000       1.935401
                          9       1    1dxy              1.097000       3.352214
                          9       1    1dxz              1.097000       3.352214
                          9       1    1dy2              1.097000       1.935401
                          9       1    1dyz              1.097000       3.352214
                          9       1    1dz2              1.097000       1.935401

                         10       1    1dx2              0.318000       0.221644
                         10       1    1dxy              0.318000       0.383899
                         10       1    1dxz              0.318000       0.383899
                         10       1    1dy2              0.318000       0.221644
                         10       1    1dyz              0.318000       0.383899
                         10       1    1dz2              0.318000       0.221644

                         11       1    1fx3              0.761000       0.796288
                         11       1    1fx2y             0.761000       1.780553
                         11       1    1fx2z             0.761000       1.780553
                         11       1    1fxy2             0.761000       1.780553
                         11       1    1fxyz             0.761000       3.084008
                         11       1    1fxz2             0.761000       1.780553
                         11       1    1fy3              0.761000       0.796288
                         11       1    1fy2z             0.761000       1.780553
                         11       1    1fyz2             0.761000       1.780553
                         11       1    1fz3              0.761000       0.796288

       Atomic covalent radius [Angstrom]:                                  0.770

       Atomic van der Waals radius [Angstrom]:                             1.700

     The atoms of this atomic kind are PAW atoms (GAPW):
       Hard Gaussian function radius:                                      1.512
       Rho0 radius:                                                        1.512
       Maximum GTO radius used for PAW projector construction:            24.566

     GAPW Soft Basis Set                                 Ahlrichs-def2-TZVP_soft

       Number of orbital shell sets:                                          11
       Number of orbital shells:                                              11
       Number of primitive Cartesian functions:                               11
       Number of Cartesian basis functions:                                   36
       Number of spherical basis functions:                                   31
       Norm type:                                                              2

       Normalised Cartesian orbitals:

                        Set   Shell   Orbital            Exponent    Coefficient

                          1       1    1s         

                          2       1    1s                2.576490       0.544758

                          3       1    1s                0.576963       0.471815

                          4       1    1s                0.229728       0.236494

                          5       1    1s                0.095164       0.122114

                          6       1    1px               2.378083       1.270923
                                                         0.814332       0.802572
                          6       1    1py               2.378083       1.270923
                                                         0.814332       0.802572
                          6       1    1pz               2.378083       1.270923
                                                         0.814332       0.802572

                          7       1    1px               0.288875       0.301876
                          7       1    1py               0.288875       0.301876
                          7       1    1pz               0.288875       0.301876

                          8       1    1px               0.100568       0.080727
                          8       1    1py               0.100568       0.080727
                          8       1    1pz               0.100568       0.080727

                          9       1    1dx2              1.097000       1.935401
                          9       1    1dxy              1.097000       3.352214
                          9       1    1dxz              1.097000       3.352214
                          9       1    1dy2              1.097000       1.935401
                          9       1    1dyz              1.097000       3.352214
                          9       1    1dz2              1.097000       1.935401

                         10       1    1dx2              0.318000       0.221644
                         10       1    1dxy              0.318000       0.383899
                         10       1    1dxz              0.318000       0.383899
                         10       1    1dy2              0.318000       0.221644
                         10       1    1dyz              0.318000       0.383899
                         10       1    1dz2              0.318000       0.221644

                         11       1    1fx3              0.761000       0.796288
                         11       1    1fx2y             0.761000       1.780553
                         11       1    1fx2z             0.761000       1.780553
                         11       1    1fxy2             0.761000       1.780553
                         11       1    1fxyz             0.761000       3.084008
                         11       1    1fxz2             0.761000       1.780553
                         11       1    1fy3              0.761000       0.796288
                         11       1    1fy2z             0.761000       1.780553
                         11       1    1fyz2             0.761000       1.780553
                         11       1    1fz3              0.761000       0.796288

     AE Potential information for                                            ALL

       Description:                                       All-electron potential
                                          Krack, Parrinello, PCCP 2, 2105 (2000)

       Gaussian exponent of the core charge distribution:               4.109048
       Electronic configuration (s p d ...):                           4   2   0

  2. Atomic kind: H                                     Number of atoms:       4

     Orbital Basis Set                                        Ahlrichs-def2-TZVP

       Number of orbital shell sets:                                           4
       Number of orbital shells:                                               4
       Number of primitive Cartesian functions:                                6
       Number of Cartesian basis functions:                                    6
       Number of spherical basis functions:                                    6
       Norm type:                                                              2

       Normalised Cartesian orbitals:

                        Set   Shell   Orbital            Exponent    Coefficient

                          1       1    1s               34.061341       0.255630
                                                         5.123575       0.461360
                                                         1.164663       0.681121

                          2       1    1s                0.327230       0.308355

                          3       1    1s                0.103072       0.129648

                          4       1    1px               0.800000       1.078456
                          4       1    1py               0.800000       1.078456
                          4       1    1pz               0.800000       1.078456

       Atomic covalent radius [Angstrom]:                                  0.320

       Atomic van der Waals radius [Angstrom]:                             1.090

     The atoms of this atomic kind are PAW atoms (GAPW):
       Hard Gaussian function radius:                                      1.200
       Rho0 radius:                                                        1.200
       Maximum GTO radius used for PAW projector construction:            24.566

     GAPW Soft Basis Set                                 Ahlrichs-def2-TZVP_soft

       Number of orbital shell sets:                                           4
       Number of orbital shells:                                               4
       Number of primitive Cartesian functions:                                5
       Number of Cartesian basis functions:                                    6
       Number of spherical basis functions:                                    6
       Norm type:                                                              2

       Normalised Cartesian orbitals:

                        Set   Shell   Orbital            Exponent    Coefficient

                          1       1    1s                5.123575       0.461360
                                                         1.164663       0.681121

                          2       1    1s                0.327230       0.308355

                          3       1    1s                0.103072       0.129648

                          4       1    1px               0.800000       1.078456
                          4       1    1py               0.800000       1.078456
                          4       1    1pz               0.800000       1.078456

     AE Potential information for                                            ALL

       Description:                                       All-electron potential
                                          Krack, Parrinello, PCCP 2, 2105 (2000)

       Gaussian exponent of the core charge distribution:              12.500000
       Electronic configuration (s p d ...):                           1   0   0


 MOLECULE KIND INFORMATION


 All atoms are their own molecule, skipping detailed information


 TOTAL NUMBERS AND MAXIMUM NUMBERS

  Total number of            - Atomic kinds:                                   2
                             - Atoms:                                         10
                             - Shell sets:                                    82
                             - Shells:                                        82
                             - Primitive Cartesian functions:                144
                             - Cartesian basis functions:                    240
                             - Spherical basis functions:                    210

  Maximum angular momentum of the orbital basis functions:                     3


 MODULE QUICKSTEP: ATOMIC COORDINATES IN ANGSTROM

   Atom Kind Element         X             Y             Z       Z(eff)     Mass
      1    1 C     6      5.621448      5.000000      3.381387   6.0000  12.0107
      2    1 C     6      4.378552      5.000000      3.381387   6.0000  12.0107
      3    1 C     6      3.543654      5.000000      4.480201   6.0000  12.0107
      4    1 C     6      4.298499      5.000000      5.669621   6.0000  12.0107
      5    1 C     6      5.701501      5.000000      5.669621   6.0000  12.0107
      6    1 C     6      6.456346      5.000000      4.480201   6.0000  12.0107
      7    2 H     1      2.462129      5.000000      4.477385   1.0000   1.0079
      8    2 H     1      3.773336      5.000000      6.618613   1.0000   1.0079
      9    2 H     1      6.226664      5.000000      6.618613   1.0000   1.0079
     10    2 H     1      7.537871      5.000000      4.477385   1.0000   1.0079



 SCF PARAMETERS         Density guess:                                   RESTART
                        --------------------------------------------------------
                        max_scf:                                              20
                        max_scf_history:                                       0
                        max_diis:                                              4
                        --------------------------------------------------------
                        eps_scf:                                        1.00E-07
                        eps_scf_history:                                0.00E+00
                        eps_diis:                                       1.00E-01
                        eps_eigval:                                     1.00E-05
                        --------------------------------------------------------
                        level_shift [a.u.]:                             0.000000
                        --------------------------------------------------------
                        Outer loop SCF in use 
                        No variables optimised in outer loop
                        eps_scf                                         1.00E-07
                        max_scf                                              200
                        No outer loop optimization
                        step_size                                       5.00E-01

 PW_GRID| Information for grid number                                          1
 PW_GRID| Grid distributed over                                    64 processors
 PW_GRID| Real space group dimensions                                    64    1
 PW_GRID| the grid is blocked:                                                NO
 PW_GRID| Cutoff [a.u.]                                                   1200.0
 PW_GRID| spherical cutoff:                                                   NO
 PW_GRID|   Bounds   1           -150     149                Points:         300
 PW_GRID|   Bounds   2           -150     149                Points:         300
 PW_GRID|   Bounds   3           -150     149                Points:         300
 PW_GRID| Volume element (a.u.^3)  0.2499E-03     Volume (a.u.^3)      6748.3346
 PW_GRID| Grid span                                                    FULLSPACE
 PW_GRID|   Distribution                         Average         Max         Min
 PW_GRID|   G-Vectors                           421875.0      422100      421800
 PW_GRID|   G-Rays                                1406.2        1407        1406
 PW_GRID|   Real Space Points                   421875.0      450000      360000

 PW_GRID| Information for grid number                                          2
 PW_GRID| Number of the reference grid                                         1
 PW_GRID| Grid distributed over                                    64 processors
 PW_GRID| Real space group dimensions                                    64    1
 PW_GRID| the grid is blocked:                                                NO
 PW_GRID| Cutoff [a.u.]                                                    600.0
 PW_GRID| spherical cutoff:                                                   NO
 PW_GRID|   Bounds   1           -108     107                Points:         216
 PW_GRID|   Bounds   2           -108     107                Points:         216
 PW_GRID|   Bounds   3           -108     107                Points:         216
 PW_GRID| Volume element (a.u.^3)  0.6696E-03     Volume (a.u.^3)      6748.3346
 PW_GRID| Grid span                                                    FULLSPACE
 PW_GRID|   Distribution                         Average         Max         Min
 PW_GRID|   G-Vectors                           157464.0      157680      157248
 PW_GRID|   G-Rays                                 729.0         730         728
 PW_GRID|   Real Space Points                   157464.0      186624      139968

 PW_GRID| Information for grid number                                          3
 PW_GRID| Number of the reference grid                                         2
 PW_GRID| Grid distributed over                                    64 processors
 PW_GRID| Real space group dimensions                                    64    1
 PW_GRID| the grid is blocked:                                                NO
 PW_GRID| Cutoff [a.u.]                                                    200.0
 PW_GRID| spherical cutoff:                                                   NO
 PW_GRID|   Bounds   1            -62      62                Points:         125
 PW_GRID|   Bounds   2            -62      62                Points:         125
 PW_GRID|   Bounds   3            -62      62                Points:         125
 PW_GRID| Volume element (a.u.^3)  0.3455E-02     Volume (a.u.^3)      6748.3346
 PW_GRID| Grid span                                                    FULLSPACE
 PW_GRID|   Distribution                         Average         Max         Min
 PW_GRID|   G-Vectors                            30517.6       30625       30375
 PW_GRID|   G-Rays                                 244.1         245         243
 PW_GRID|   Real Space Points                    30517.6       31250       15625

 PW_GRID| Information for grid number                                          4
 PW_GRID| Number of the reference grid                                         2
 PW_GRID| Grid distributed over                                    64 processors
 PW_GRID| Real space group dimensions                                    64    1
 PW_GRID| the grid is blocked:                                                NO
 PW_GRID| Cutoff [a.u.]                                                     66.7
 PW_GRID| spherical cutoff:                                                   NO
 PW_GRID|   Bounds   1            -36      35                Points:          72
 PW_GRID|   Bounds   2            -36      35                Points:          72
 PW_GRID|   Bounds   3            -36      35                Points:          72
 PW_GRID| Volume element (a.u.^3)  0.1808E-01     Volume (a.u.^3)      6748.3346
 PW_GRID| Grid span                                                    FULLSPACE
 PW_GRID|   Distribution                         Average         Max         Min
 PW_GRID|   G-Vectors                             5832.0        5904        5760
 PW_GRID|   G-Rays                                  81.0          82          80
 PW_GRID|   Real Space Points                     5832.0       10368        5184

 PW_GRID| Information for grid number                                          5
 PW_GRID| Number of the reference grid                                         2
 PW_GRID| Grid distributed over                                    64 processors
 PW_GRID| Real space group dimensions                                     8    8
 PW_GRID| the grid is blocked:                                                NO
 PW_GRID| Cutoff [a.u.]                                                     22.2
 PW_GRID| spherical cutoff:                                                   NO
 PW_GRID|   Bounds   1            -22      22                Points:          45
 PW_GRID|   Bounds   2            -22      22                Points:          45
 PW_GRID|   Bounds   3            -22      22                Points:          45
 PW_GRID| Volume element (a.u.^3)  0.7406E-01     Volume (a.u.^3)      6748.3346
 PW_GRID| Grid span                                                    FULLSPACE
 PW_GRID|   Distribution                         Average         Max         Min
 PW_GRID|   G-Vectors                             1423.8        1485        1395
 PW_GRID|   G-Rays                                  31.6          33          31
 PW_GRID|   Real Space Points                     1423.8        1620        1125

 PW_GRID| Information for grid number                                          6
 PW_GRID| Number of the reference grid                                         2
 PW_GRID| Grid distributed over                                    64 processors
 PW_GRID| Real space group dimensions                                     8    8
 PW_GRID| the grid is blocked:                                                NO
 PW_GRID| Cutoff [a.u.]                                                      7.4
 PW_GRID| spherical cutoff:                                                   NO
 PW_GRID|   Bounds   1            -12      11                Points:          24
 PW_GRID|   Bounds   2            -12      11                Points:          24
 PW_GRID|   Bounds   3            -12      11                Points:          24
 PW_GRID| Volume element (a.u.^3)  0.4882         Volume (a.u.^3)      6748.3346
 PW_GRID| Grid span                                                    FULLSPACE
 PW_GRID|   Distribution                         Average         Max         Min
 PW_GRID|   G-Vectors                              216.0         240         192
 PW_GRID|   G-Rays                                   9.0          10           8
 PW_GRID|   Real Space Points                      216.0         216         216

 POISSON| Solver                                          Martyna-Tuckerman (MT)
 POISSON| MT| Alpha                                                        7.000
 POISSON| MT| Relative cutoff                                                2.0
 POISSON| Periodicity                                                       NONE

 RS_GRID| Information for grid number                                          2
 RS_GRID|   Bounds   1           -108     107                Points:         216
 RS_GRID|   Bounds   2           -108     107                Points:         216
 RS_GRID|   Bounds   3           -108     107                Points:         216
 RS_GRID| Real space distribution over                                  4 groups
 RS_GRID| Real space distribution along direction                              1
 RS_GRID| Border size                                                         37
 RS_GRID| Real space distribution over                                  4 groups
 RS_GRID| Real space distribution along direction                              2
 RS_GRID| Border size                                                         37
 RS_GRID| Real space distribution over                                  4 groups
 RS_GRID| Real space distribution along direction                              3
 RS_GRID| Border size                                                         37
 RS_GRID|   Distribution                         Average         Max         Min
 RS_GRID|   Planes                                 128.0         128         128
 RS_GRID|   Distribution                         Average         Max         Min
 RS_GRID|   Planes                                 128.0         128         128
 RS_GRID|   Distribution                         Average         Max         Min
 RS_GRID|   Planes                                 128.0         128         128

 RS_GRID| Information for grid number                                          3
 RS_GRID|   Bounds   1            -62      62                Points:         125
 RS_GRID|   Bounds   2            -62      62                Points:         125
 RS_GRID|   Bounds   3            -62      62                Points:         125
 RS_GRID| Real space fully replicated
 RS_GRID| Group size                                                           1

 RS_GRID| Information for grid number                                          4
 RS_GRID|   Bounds   1            -36      35                Points:          72
 RS_GRID|   Bounds   2            -36      35                Points:          72
 RS_GRID|   Bounds   3            -36      35                Points:          72
 RS_GRID| Real space fully replicated
 RS_GRID| Group size                                                           1

 RS_GRID| Information for grid number                                          5
 RS_GRID|   Bounds   1            -22      22                Points:          45
 RS_GRID|   Bounds   2            -22      22                Points:          45
 RS_GRID|   Bounds   3            -22      22                Points:          45
 RS_GRID| Real space fully replicated
 RS_GRID| Group size                                                           1

 RS_GRID| Information for grid number                                          6
 RS_GRID|   Bounds   1            -12      11                Points:          24
 RS_GRID|   Bounds   2            -12      11                Points:          24
 RS_GRID|   Bounds   3            -12      11                Points:          24
 RS_GRID| Real space fully replicated
 RS_GRID| Group size                                                           1

  HFX_INFO| Replica ID:                                                        1
  HFX_INFO| FRACTION:                                               0.2500000000
  HFX_INFO| Interaction Potential:                                       COULOMB
  HFX_INFO| EPS_SCHWARZ:                                                 1.0E-10
  HFX_INFO| EPS_SCHWARZ_FORCES                                           1.0E-06
  HFX_INFO| EPS_STORAGE_SCALING:                                         1.0E+00
  HFX_INFO| NBINS:                                                            64
  HFX_INFO| BLOCK_SIZE:                                                        1
  HFX_INFO| Number of periodic shells considered:                           NONE
  HFX_INFO| Number of periodic cells considered:                            NONE


 Number of electrons:                                                         40
 Number of occupied orbitals:                                                 20
 Number of molecular orbitals:                                                20

 Number of orbital functions:                                                210
 Number of independent orbital functions:                                    210

 Extrapolation method: initial_guess

 *** WARNING in qs_initial_guess.F:305 :: User requested to restart the    ***
 *** wavefunction from the file named: benzyne_less-RESTART.wfn. This file ***
 *** does not exist. Please check the existence of the file or change      ***
 *** properly the value of the keyword WFN_RESTART_FILE_NAME. Calculation  ***
 *** continues using ATOMIC GUESS.                                         ***


 Atomic guess: The first density matrix is obtained in terms of atomic orbitals
               and electronic configurations assigned to each atomic kind

 Guess for atomic kind: C

 Electronic structure
    Total number of core electrons                                          0.00
    Total number of valence electrons                                       6.00
    Total number of electrons                                               6.00
    Multiplicity                                                   not specified
    S      2.00  2.00
    P      2.00
 

 *******************************************************************************
                  Iteration          Convergence                     Energy [au]
 *******************************************************************************
                          1        0.147208                     -37.407693601264
                          2        0.119028                     -37.412727810384
                          3        0.151591E-02                 -37.421609589284
                          4        0.252468E-03                 -37.421611675915
                          5        0.320487E-05                 -37.421611714904
                          6        0.162446E-06                 -37.421611714918

 Energy components [Hartree]           Total Energy ::          -37.421611714918
                                        Band Energy ::          -21.277675770449
                                     Kinetic Energy ::           37.196286588355
                                   Potential Energy ::          -74.617898303274
                                      Virial (-V/T) ::            2.006057731758
                                        Core Energy ::          -50.332032480142
                                          XC Energy ::           -4.732819490143
                                     Coulomb Energy ::           17.643240255367

 Orbital energies  State     L     Occupation   Energy[a.u.]          Energy[eV]

                       1     0          2.000      -9.943251         -270.569607
                       2     0          2.000      -0.498684          -13.569893
 
                       1     1          2.000      -0.196903           -5.358002
 

 Total Electron Density at R=0:                                       121.622713

 Guess for atomic kind: H

 Electronic structure
    Total number of core electrons                                          0.00
    Total number of valence electrons                                       1.00
    Total number of electrons                                               1.00
    Multiplicity                                                   not specified
    S      1.00
 

 *******************************************************************************
                  Iteration          Convergence                     Energy [au]
 *******************************************************************************
                          1        0.917598E-02                  -0.444895232610
                          2        0.101733E-02                  -0.444969959338
                          3        0.739292E-04                  -0.444971980690
                          4        0.601377E-07                  -0.444971989573

 Energy components [Hartree]           Total Energy ::           -0.444971989573
                                        Band Energy ::           -0.230448725171
                                     Kinetic Energy ::            0.428990089350
                                   Potential Energy ::           -0.873962078923
                                      Virial (-V/T) ::            2.037254707321
                                        Core Energy ::           -0.496265746842
                                          XC Energy ::           -0.234272986041
                                     Coulomb Energy ::            0.285566743311

 Orbital energies  State     L     Occupation   Energy[a.u.]          Energy[eV]

                       1     0          1.000      -0.230449           -6.270829
 

 Total Electron Density at R=0:                                         0.247098
 Re-scaling the density matrix to get the right number of electrons
                  # Electrons              Trace(P)               Scaling factor
                           40                40.000                        1.000


 SCF WAVEFUNCTION OPTIMIZATION

  ----------------------------------- OT ---------------------------------------
  Minimizer      : DIIS                : direct inversion
                                         in the iterative subspace
                                         using   7 DIIS vectors
                                         safer DIIS on
  Preconditioner : FULL_ALL            : diagonalization, state selective
  Precond_solver : DEFAULT
  stepsize       :    0.15000000                  energy_gap     :    0.08000000
  eps_taylor     :   0.10000E-15                  max_taylor     :             4
  ----------------------------------- OT ---------------------------------------

  Step     Update method      Time    Convergence         Total energy    Change
  ------------------------------------------------------------------------------

  HFX_MEM_INFO| Est. max. program size before HFX [MiB]:                     632
  HFX_MEM_INFO| Number of cart. primitive ERI's calculated:           1752206025
  HFX_MEM_INFO| Number of sph. ERI's calculated:                       317091951
  HFX_MEM_INFO| Number of sph. ERI's stored in-core:                   317091951
  HFX_MEM_INFO| Number of sph. ERI's stored on disk:                           0
  HFX_MEM_INFO| Number of sph. ERI's calculated on the fly:                    0
  HFX_MEM_INFO| Total memory consumption ERI's RAM [MiB]:                    891
  HFX_MEM_INFO| Whereof max-vals [MiB]:                                        3
  HFX_MEM_INFO| Total compression factor ERI's RAM:                         2.72
  HFX_MEM_INFO| Total memory consumption ERI's disk [MiB]:                     0
  HFX_MEM_INFO| Total compression factor ERI's disk:                        0.00
  HFX_MEM_INFO| Size of density/Fock matrix [MiB]:                             0
  HFX_MEM_INFO| Size of buffers [MiB]:                                         0
  HFX_MEM_INFO| Est. max. program size after HFX  [MiB]:                    1014

     1 OT DIIS     0.15E+00    3.9     0.17660182      -217.2940513062 -2.17E+02
     2 OT DIIS     0.15E+00    1.4     0.04593835      -228.3528889018 -1.11E+01
     3 OT DIIS     0.15E+00    1.4     0.02273524      -229.2746201446 -9.22E-01
     4 OT DIIS     0.15E+00    1.3     0.01556155      -229.6219344362 -3.47E-01
     5 OT DIIS     0.15E+00    1.3     0.01283691      -229.8915596697 -2.70E-01
     6 OT DIIS     0.15E+00    1.1     0.01114519      -230.0701492115 -1.79E-01
     7 OT DIIS     0.15E+00    1.2     0.00921542      -230.2476348324 -1.77E-01
     8 OT DIIS     0.15E+00    1.2     0.00682555      -230.4004487659 -1.53E-01
     9 OT DIIS     0.15E+00    1.2     0.00754152      -230.4449341677 -4.45E-02
    10 OT DIIS     0.15E+00    1.1     0.00525792      -230.5139387011 -6.90E-02
    11 OT DIIS     0.15E+00    1.0     0.00492680      -230.5588652251 -4.49E-02
    12 OT DIIS     0.15E+00    1.1     0.00546329      -230.5958517559 -3.70E-02
    13 OT SD       0.15E+00    1.0     0.00333732      -230.6313002822 -3.54E-02
    14 OT DIIS     0.15E+00    1.0     0.00299864      -230.6377579269 -6.46E-03
    15 OT DIIS     0.15E+00    1.0     0.00526165      -230.6523841221 -1.46E-02
    16 OT DIIS     0.15E+00    0.9     0.00332731      -230.6688094599 -1.64E-02
    17 OT DIIS     0.15E+00    1.0     0.00190864      -230.6804232820 -1.16E-02
    18 OT DIIS     0.15E+00    1.0     0.00198222      -230.6884972522 -8.07E-03
    19 OT DIIS     0.15E+00    1.0     0.00142238      -230.6973353169 -8.84E-03
    20 OT DIIS     0.15E+00    1.0     0.00215442      -230.6950453089  2.29E-03

  Leaving inner SCF loop after reaching    20 steps.


  Electronic density on regular grids:        -28.6449331047       11.3550668953
  Core density on regular grids:               40.0000000000       -0.0000000000
  Hard and soft densities (Lebedev):          -58.2298918852      -46.8748297871
  Total Rho_soft + Rho1_hard - Rho1_soft      -39.9999952029
  Total charge density (r-space):               0.0000047971
  Total Rho_soft + Rho0_soft (g-space):         0.0000046633

  Overlap energy of the core charge distribution:               0.00004004611078
  Self energy of the core charge distribution:               -180.31837554978486
  Core Hamiltonian energy:                                    -42.02763583202086
  Hartree energy:                                              73.37263746630607
  Exchange-correlation energy:                                 -9.41352954365115
  Hartree-Fock Exchange energy:                                -8.10692413030376

  GAPW| Exc from hard and soft atomic rho1:                   -16.17418567076997
  GAPW| local Eh = 1 center integrals:                        -48.02707209483094

  Total energy:                                              -230.69504530894471

  outer SCF iter =    1 RMS gradient =   0.22E-02 energy =       -230.6950453089

  ----------------------------------- OT ---------------------------------------
  Minimizer      : DIIS                : direct inversion
                                         in the iterative subspace
                                         using   7 DIIS vectors
                                         safer DIIS on
  Preconditioner : FULL_ALL            : diagonalization, state selective
  Precond_solver : DEFAULT
  stepsize       :    0.15000000                  energy_gap     :    0.08000000
  eps_taylor     :   0.10000E-15                  max_taylor     :             4
  ----------------------------------- OT ---------------------------------------

  Step     Update method      Time    Convergence         Total energy    Change
  ------------------------------------------------------------------------------
     1 OT DIIS     0.15E+00    2.5     0.00329823      -230.6986743677 -3.63E-03
     2 OT DIIS     0.15E+00    1.1     0.00179241      -230.7035997691 -4.93E-03
     3 OT DIIS     0.15E+00    1.0     0.00122497      -230.7051118969 -1.51E-03
     4 OT DIIS     0.15E+00    1.1     0.00038747      -230.7055323674 -4.20E-04
     5 OT DIIS     0.15E+00    1.2     0.00012233      -230.7055609143 -2.85E-05
     6 OT DIIS     0.15E+00    0.9     0.00004689      -230.7055677288 -6.81E-06
     7 OT DIIS     0.15E+00    0.9     0.00001075      -230.7055687063 -9.77E-07
     8 OT DIIS     0.15E+00    0.9     0.00000337      -230.7055687622 -5.59E-08
     9 OT DIIS     0.15E+00    0.9     0.00000109      -230.7055687689 -6.68E-09
    10 OT DIIS     0.15E+00    0.9     0.00000046      -230.7055687694 -5.42E-10
    11 OT DIIS     0.15E+00    1.0     0.00000012      -230.7055687695 -7.84E-11
    12 OT DIIS     0.15E+00    1.0     0.00000004      -230.7055687695 -7.33E-12

  *** SCF run converged in    12 steps ***


  Electronic density on regular grids:        -28.6453563819       11.3546436181
  Core density on regular grids:               40.0000000000       -0.0000000000
  Hard and soft densities (Lebedev):          -58.1541570018      -46.7995182851
  Total Rho_soft + Rho1_hard - Rho1_soft      -39.9999950986
  Total charge density (r-space):               0.0000049014
  Total Rho_soft + Rho0_soft (g-space):         0.0000047676

  Overlap energy of the core charge distribution:               0.00004004611078
  Self energy of the core charge distribution:               -180.31837554978486
  Core Hamiltonian energy:                                    -42.04864509563664
  Hartree energy:                                              73.38390638370802
  Exchange-correlation energy:                                 -9.41213140875629
  Hartree-Fock Exchange energy:                                -8.10601961647443

  GAPW| Exc from hard and soft atomic rho1:                   -16.17345400637855
  GAPW| local Eh = 1 center integrals:                        -48.03088952228524

  Total energy:                                              -230.70556876949723

  outer SCF iter =    2 RMS gradient =   0.44E-07 energy =       -230.7055687695
  outer SCF loop converged in   2 iterations or   32 steps


 !-----------------------------------------------------------------------------!
                     Mulliken Population Analysis

 #  Atom  Element  Kind  Atomic population                           Net charge
       1     C        1          6.027338                             -0.027338
       2     C        1          6.027337                             -0.027337
       3     C        1          6.149091                             -0.149091
       4     C        1          6.134014                             -0.134014
       5     C        1          6.134014                             -0.134014
       6     C        1          6.149092                             -0.149092
       7     H        2          0.833585                              0.166415
       8     H        2          0.855971                              0.144029
       9     H        2          0.855971                              0.144029
      10     H        2          0.833586                              0.166414
 # Total charge                             40.000000                  0.000000

 !-----------------------------------------------------------------------------!

 !-----------------------------------------------------------------------------!
                           Hirshfeld Charges

  #Atom  Element  Kind  Ref Charge     Population                    Net charge
      1       C      1       6.000          6.064                        -0.064
      2       C      1       6.000          6.064                        -0.064
      3       C      1       6.000          6.439                        -0.439
      4       C      1       6.000          6.483                        -0.483
      5       C      1       6.000          6.483                        -0.483
      6       C      1       6.000          6.439                        -0.439
      7       H      2       1.000          0.503                         0.497
      8       H      2       1.000          0.506                         0.494
      9       H      2       1.000          0.506                         0.494
     10       H      2       1.000          0.503                         0.497

  Total Charge                                                            0.011
 !-----------------------------------------------------------------------------!

 *******************************************************************************
 **                                                                           **
 **         ######## #######   #######   ######## #######  ########           **
 **            ##    ##     ## ##     ## ##       ##   ##     ##              **
 **            ##    ##     ## ##     ## ######   #######     ##              **
 **            ##    ##     ## ##     ## ##       ##          ##              **
 **            ##    #######   #######   ##       ##          ##              **
 **                                                                           **
 *******************************************************************************
 KERNEL|                                                                    FULL
 FUNCTIONAL| PBE:
 FUNCTIONAL| J.P.Perdew, K.Burke, M.Ernzerhof, Phys. Rev. Letter, vol. 77, n 18,
 FUNCTIONAL|  pp. 3865-3868, (1996)sx=0.750sc=1.000{spin unpolarized}           
 KERNEL|                                                          Exact Exchange
 KERNEL| Spin symmetry of excitations                                    Triplet
 TDDFPT| Number of states calculated                                          10
 TDDFPT| Number of Davidson iterations                                        20
 TDDFPT| Davidson iteration convergence                                0.100E-07
 TDDFPT| Max. number of Krylov space vectors                                  60
 TDDFPT| Molecular Orbitals:        Spin       AOs       Occ      Virt     Total
 TDDFPT|                               1       210        20       190       210

 *******************************************************************************
 **                                                                           **
 **                            ####### ####### #######                        **
 **                        #   ##      ##   ## ##                             **
 **                       ###  ######  ##   ## ##                             **
 **                        #       ##  ##   ## ##                             **
 **                            ######  ####### #######                        **
 **                 Based on the xas module from Augustin Bussy               **
 *******************************************************************************
 
 -------------------------------------------------------------------------------
 -                      TDDFPT TRIPLET ENERGIES                                 -
 -------------------------------------------------------------------------------
 
 -------------------------------------------------------------------------------
 -                            TDDFPT Initial Guess                             -
 -------------------------------------------------------------------------------
          State         Occupied      ->      Virtual          Excitation
          number         orbital              orbital          energy (eV)
 -------------------------------------------------------------------------------
             1               20                   21              5.59966
             2               19                   21              5.65449
             3               18                   21              5.66783
             4               20                   22              6.82760
             5               19                   22              6.88243
             6               18                   22              6.89577
             7               20                   23              7.73646
             8               19                   23              7.79129
             9               18                   23              7.80463
            10               17                   21              8.98999

      Number of active states:                                       3800
 -------------------------------------------------------------------------------
 
 -------------------------------------------------------------------------------
 -                      TDDFPT WAVEFUNCTION OPTIMIZATION                       -
 -------------------------------------------------------------------------------

          Step            Time         Convergence           Conv. states
 -------------------------------------------------------------------------------

    State    Exc. energy (eV)      Convergence (eV)
        1       2.3202147            -3.2794E+00
        2       3.5865715            -2.0679E+00
        3       3.8047494            -1.8631E+00
        4       4.3516416            -2.4760E+00
        5       4.7688223            -2.1136E+00
        6       4.9385728            -1.9572E+00
        7       5.3457360            -2.3907E+00
        8       5.7558719            -2.0354E+00
        9       5.8181934            -1.9864E+00
       10       7.3287537            -1.6612E+00
 
             1             8.4          1.2052E-01                      0

    State    Exc. energy (eV)      Convergence (eV)
        1       2.1219553            -1.9826E-01
        2       3.3892178            -1.9735E-01
        3       3.7638986            -4.0851E-02
        4       4.1332264            -2.1842E-01
        5       4.7167433            -5.2079E-02
        6       4.8987481            -3.9825E-02
        7       5.2222534            -1.2348E-01
        8       5.6711767            -8.4695E-02
        9       5.6911826            -1.2701E-01
       10       7.1559019            -1.7285E-01
 
             2             7.2          8.0266E-03                      0

    State    Exc. energy (eV)      Convergence (eV)
        1       2.1204876            -1.4677E-03
        2       3.3858586            -3.3592E-03
        3       3.7634588            -4.3976E-04
        4       4.1322309            -9.9550E-04
        5       4.7161773            -5.6604E-04
        6       4.8982656            -4.8250E-04
        7       5.2214101            -8.4324E-04
        8       5.6680901            -3.0866E-03
        9       5.6861597            -5.0229E-03
       10       7.1388326            -1.7069E-02
 
             3             7.1          6.2729E-04                      0

    State    Exc. energy (eV)      Convergence (eV)
        1       2.1204666            -2.1057E-05
        2       3.3858333            -2.5314E-05
        3       3.7634560            -2.7718E-06
        4       4.1322130            -1.7866E-05
        5       4.7161690            -8.3075E-06
        6       4.8982568            -8.8565E-06
        7       5.2213878            -2.2365E-05
        8       5.6680259            -6.4267E-05
        9       5.6860056            -1.5416E-04
       10       7.1381875            -6.4509E-04
 
             4             6.6          2.3707E-05                      0

    State    Exc. energy (eV)      Convergence (eV)
        1       2.1204664            -1.6905E-07
        2       3.3858330            -2.9691E-07
        3       3.7634560            -2.6748E-08
        4       4.1322128            -2.2358E-07
        5       4.7161688            -1.5800E-07
        6       4.8982567            -1.0411E-07
        7       5.2213874            -4.0523E-07
        8       5.6680245            -1.3862E-06
        9       5.6860025            -3.0746E-06
       10       7.1381427            -4.4803E-05
 
             5             7.1          1.6465E-06                      5

    State    Exc. energy (eV)      Convergence (eV)
        1       2.1204664            -7.2179E-10
        2       3.3858330            -3.0561E-09
        3       3.7634560            -2.8320E-10
        4       4.1322128            -1.1686E-09
        5       4.7161688            -2.5034E-09
        6       4.8982567            -1.4424E-09
        7       5.2213874            -1.9439E-09
        8       5.6680244            -3.1658E-08
        9       5.6860024            -7.3340E-08
       10       7.1381416            -1.0565E-06
 
             6             6.4          3.8826E-08                      9
 ------------------------- Restart Davidson iterations -------------------------

    State    Exc. energy (eV)      Convergence (eV)
        1       2.1204664            -3.7763E-16
        2       3.3858330            -7.1750E-15
        3       3.7634560            -5.2869E-15
        4       4.1322128            -8.3079E-15
        5       4.7161688            -9.8185E-15
        6       4.8982567             2.2658E-15
        7       5.2213874            -1.0574E-14
        8       5.6680244             2.2658E-15
        9       5.6860024            -6.7974E-15
       10       7.1381416            -1.5105E-14
 
             7             6.4          5.5511E-16                     10
 
 -------------------------------------------------------------------------------
 -  TDDFPT run converged in 7 iteration(s) 
 -------------------------------------------------------------------------------

 R-TDDFPT states of multiplicity 3
 Transition dipoles calculated using velocity formulation

         State    Excitation        Transition dipole (a.u.)        Oscillator
         number   energy (eV)       x           y           z     strength (a.u.)
         ------------------------------------------------------------------------
 TDDFPT|      1       2.12047   0.0000E+00  0.0000E+00  0.0000E+00   0.00000E+00
 TDDFPT|      2       3.38583   0.0000E+00  0.0000E+00  0.0000E+00   0.00000E+00
 TDDFPT|      3       3.76346   0.0000E+00  0.0000E+00  0.0000E+00   0.00000E+00
 TDDFPT|      4       4.13221   0.0000E+00  0.0000E+00  0.0000E+00   0.00000E+00
 TDDFPT|      5       4.71617   0.0000E+00  0.0000E+00  0.0000E+00   0.00000E+00
 TDDFPT|      6       4.89826   0.0000E+00  0.0000E+00  0.0000E+00   0.00000E+00
 TDDFPT|      7       5.22139   0.0000E+00  0.0000E+00  0.0000E+00   0.00000E+00
 TDDFPT|      8       5.66802   0.0000E+00  0.0000E+00  0.0000E+00   0.00000E+00
 TDDFPT|      9       5.68600   0.0000E+00  0.0000E+00  0.0000E+00   0.00000E+00
 TDDFPT|     10       7.13814   0.0000E+00  0.0000E+00  0.0000E+00   0.00000E+00

 TDDFPT : CheckSum  =  0.564682E+00
 
 -------------------------------------------------------------------------------
 -                            Excitation analysis                              -
 -------------------------------------------------------------------------------
        State             Occupied              Virtual             Excitation
        number             orbital              orbital             amplitude
 -------------------------------------------------------------------------------
             1   2.12047 eV
                                20                   21              -0.986489
                                12                   21               0.073604
                                17                   21               0.067417
                                19                   23              -0.054381
                                20                   39              -0.051550
             2   3.38583 eV
                                19                   21              -0.971830
                                16                   21               0.191246
                                20                   23              -0.106077
             3   3.76346 eV
                                18                   21              -0.997655
             4   4.13221 eV
                                18                   22              -0.942329
                                19                   23               0.295280
                                16                   29              -0.103975
                                18                   42              -0.054749
                                20                   21              -0.050905
             5   4.71617 eV
                                19                   22              -0.980284
                                18                   23               0.186360
             6   4.89826 eV
                                20                   22               0.997523
             7   5.22139 eV
                                19                   23               0.943663
                                18                   22               0.309524
                                16                   29              -0.063806
                                19                   43               0.056615
             8   5.66802 eV
                                20                   23              -0.975583
                                20                   29              -0.142179
                                19                   21               0.129680
                                16                   21               0.065277
             9   5.68600 eV
                                18                   23              -0.975331
                                19                   22              -0.188377
                                16                   22               0.092099
            10   7.13814 eV
                                17                   21               0.960445
                                14                   21              -0.207458
                                12                   21               0.130154
                                10                   21              -0.076908
                                20                   21               0.069929
 -------------------------------------------------------------------------------
 
 -------------------------------------------------------------------------------
 -                            Natural Orbital analysis                         -
 -------------------------------------------------------------------------------
   STATE NR.      1             2.12047 eV
     Particle-Hole state: 1   Spin:1     Eigenvalue: 0.99287   Sum Eigv: 0.99287
   STATE NR.      2             3.38583 eV
     Particle-Hole state: 1   Spin:1     Eigenvalue: 0.98364   Sum Eigv: 0.98364
   STATE NR.      3             3.76346 eV
     Particle-Hole state: 1   Spin:1     Eigenvalue: 0.99645   Sum Eigv: 0.99645
   STATE NR.      4             4.13221 eV
     Particle-Hole state: 1   Spin:1     Eigenvalue: 0.89178   Sum Eigv: 0.89178
     Particle-Hole state: 2   Spin:1     Eigenvalue: 0.09185   Sum Eigv: 0.98363
   STATE NR.      5             4.71617 eV
     Particle-Hole state: 1   Spin:1     Eigenvalue: 0.96290   Sum Eigv: 0.96290
     Particle-Hole state: 2   Spin:1     Eigenvalue: 0.03541   Sum Eigv: 0.99832
   STATE NR.      6             4.89826 eV
     Particle-Hole state: 1   Spin:1     Eigenvalue: 0.99668   Sum Eigv: 0.99668
   STATE NR.      7             5.22139 eV
     Particle-Hole state: 1   Spin:1     Eigenvalue: 0.89524   Sum Eigv: 0.89524
     Particle-Hole state: 2   Spin:1     Eigenvalue: 0.09652   Sum Eigv: 0.99176
   STATE NR.      8             5.66802 eV
     Particle-Hole state: 1   Spin:1     Eigenvalue: 0.97509   Sum Eigv: 0.97509
   STATE NR.      9             5.68600 eV
     Particle-Hole state: 1   Spin:1     Eigenvalue: 0.95345   Sum Eigv: 0.95345
     Particle-Hole state: 2   Spin:1     Eigenvalue: 0.04438   Sum Eigv: 0.99783
   STATE NR.     10             7.13814 eV
     Particle-Hole state: 1   Spin:1     Eigenvalue: 0.99485   Sum Eigv: 0.99485
 -------------------------------------------------------------------------------
 
                       triplet excitations finished                             
                                                                                
 -------------------------------------------------------------------------------
 -                      TDDFPT SINGLET ENERGIES                                -
 -------------------------------------------------------------------------------
 
 -------------------------------------------------------------------------------
 -                            TDDFPT Initial Guess                             -
 -------------------------------------------------------------------------------
          State         Occupied      ->      Virtual          Excitation
          number         orbital              orbital          energy (eV)
 -------------------------------------------------------------------------------
             1               20                   21              5.59966
             2               19                   21              5.65449
             3               18                   21              5.66783
             4               20                   22              6.82760
             5               19                   22              6.88243
             6               18                   22              6.89577
             7               20                   23              7.73646
             8               19                   23              7.79129
             9               18                   23              7.80463
            10               17                   21              8.98999

      Number of active states:                                       3800
 -------------------------------------------------------------------------------
 
 -------------------------------------------------------------------------------
 -                      TDDFPT WAVEFUNCTION OPTIMIZATION                       -
 -------------------------------------------------------------------------------

          Step            Time         Convergence           Conv. states
 -------------------------------------------------------------------------------

    State    Exc. energy (eV)      Convergence (eV)
        1       3.9900405            -1.6096E+00
        2       4.0589565            -1.5955E+00
        3       5.1447186            -5.2311E-01
        4       5.8205730            -1.0070E+00
        5       5.8363925            -1.0460E+00
        6       6.1375169            -7.5825E-01
        7       7.4562180            -2.8024E-01
        8       7.7381001            -5.3189E-02
        9       9.5210083             1.7164E+00
       10      11.6413591             2.6514E+00
 
             1             8.0          9.7436E-02                      0

    State    Exc. energy (eV)      Convergence (eV)
        1       3.9226144            -6.7426E-02
        2       4.0385741            -2.0382E-02
        3       5.0708070            -7.3912E-02
        4       5.1200584            -7.0051E-01
        5       5.7237696            -1.1262E-01
        6       6.0733065            -6.4210E-02
        7       6.6410288            -8.1519E-01
        8       7.4365486            -3.0155E-01
        9       8.3690633            -1.1519E+00
       10       8.8943380            -2.7470E+00
 
             2             6.7          1.0095E-01                      0

[...]
 flops    12 x    20 x    12               783360       0.0%    100.0%      0.0%
 flops     6 x    20 x    12               783360       0.0%    100.0%      0.0%
 flops    31 x    30 x     6               803520       0.0%    100.0%      0.0%
 flops     6 x    30 x    31               803520       0.0%    100.0%      0.0%
 flops    12 x    20 x    20              1555200       0.0%    100.0%      0.0%
 flops     6 x    20 x    20              1555200       0.0%    100.0%      0.0%
 flops    20 x    20 x    12              2496000       0.0%    100.0%      0.0%
 flops    31 x    32 x     6              4285440       0.0%    100.0%      0.0%
 flops     6 x    32 x    31              4285440       0.0%    100.0%      0.0%
 flops     6 x     6 x    20              4507200       0.0%    100.0%      0.0%
 flops    20 x    20 x    20              4688000       0.0%    100.0%      0.0%
 flops    12 x    20 x    31              6071040       0.0%    100.0%      0.0%
 flops    31 x    30 x    31              6227280       0.0%    100.0%      0.0%
 flops    31 x    20 x    12             12142080       0.0%    100.0%      0.0%
 flops    31 x    20 x    20             24105600       0.0%    100.0%      0.0%
 flops     6 x    20 x     6             25453440       0.0%    100.0%      0.0%
 flops    31 x     6 x    20             27944640       0.0%    100.0%      0.0%
 flops     6 x    31 x    20             27944640       0.0%    100.0%      0.0%
 flops    31 x    32 x    31             33212160       0.0%    100.0%      0.0%
 flops    20 x    20 x     6             38400000       0.0%    100.0%      0.0%
 flops    31 x    20 x     6            194451840       0.0%    100.0%      0.0%
 flops     6 x    20 x    31            200522880       0.0%    100.0%      0.0%
 flops    31 x    31 x    20            252666120       0.0%    100.0%      0.0%
 flops    20 x    20 x    31            316944000       0.0%    100.0%      0.0%
 flops    31 x    20 x    31           1615633200       0.0%    100.0%      0.0%
 flops inhomo. stacks                           0       0.0%      0.0%      0.0%
 flops total                         2.808922E+09       0.0%    100.0%      0.0%
 flops max/rank                    316.005600E+06       0.0%    100.0%      0.0%
 matmuls inhomo. stacks                         0       0.0%      0.0%      0.0%
 matmuls total                             156232       0.0%    100.0%      0.0%
 number of processed stacks                114597       0.0%    100.0%      0.0%
 average stack size                                     0.0       1.4       0.0
 marketing flops                     3.144552E+09
 -------------------------------------------------------------------------------
 # multiplications                           1963
 max memory usage/rank               1.216647E+09
 # max total images/rank                        1
 # max 3D layers                                1
 # MPI messages exchanged                 1758848
 MPI messages size (bytes):
  total size                         3.207517E+09
  min size                           0.000000E+00
  max size                           9.920000E+03
  average size                       1.823647E+03
 MPI breakdown and total messages size (bytes):
             size <=      128             1146180                        0
       128 < size <=     8192              607628               3157520240
      8192 < size <=    32768                5040                 49996800
     32768 < size <=   131072                   0                        0
    131072 < size <=  4194304                   0                        0
   4194304 < size <= 16777216                   0                        0
  16777216 < size                               0                        0
 -------------------------------------------------------------------------------
 -                                                                             -
 -                      DBCSR MESSAGE PASSING PERFORMANCE                      -
 -                                                                             -
 -------------------------------------------------------------------------------
 ROUTINE             CALLS      AVE VOLUME [Bytes]
 MP_Bcast               28                     12.
 MP_Allreduce         8625                      8.
 MP_Alltoall         29065                  10202.
 MP_ISend            62808                   1507.
 MP_IRecv            62808                   1406.
 -------------------------------------------------------------------------------

 -------------------------------------------------------------------------------
 -                                                                             -
 -                                DBM STATISTICS                               -
 -                                                                             -
 -------------------------------------------------------------------------------
    M  x    N  x    K                                          COUNT     PERCENT
 -------------------------------------------------------------------------------

 -------------------------------------------------------------------------------
 -                                                                             -
 -                                GRID STATISTICS                              -
 -                                                                             -
 -------------------------------------------------------------------------------
 LP    KERNEL             BACKEND                              COUNT     PERCENT
 1     collocate ortho    CPU                                 210700      13.33%
 1     integrate ortho    CPU                                 207088      13.10%
 2     collocate ortho    CPU                                 168350      10.65%
 2     integrate ortho    CPU                                 165464      10.47%
 0     collocate ortho    CPU                                 148400       9.39%
 0     integrate ortho    CPU                                 145856       9.23%
 3     collocate ortho    CPU                                 113400       7.17%
 3     integrate ortho    CPU                                 111456       7.05%
 2     collocate general  CPU                                 111360       7.04%
 2     integrate general  CPU                                  65280       4.13%
 4     collocate ortho    CPU                                  48300       3.06%
 4     integrate ortho    CPU                                  47472       3.00%
 5     collocate ortho    CPU                                  14700       0.93%
 5     integrate ortho    CPU                                  14448       0.91%
 6     collocate ortho    CPU                                   3675       0.23%
 6     integrate ortho    CPU                                   3612       0.23%
 0     collocate general  CPU                                    640       0.04%
 0     integrate general  CPU                                    640       0.04%
 -------------------------------------------------------------------------------

 MEMORY| Estimated peak process memory [MiB]                                1161

 -------------------------------------------------------------------------------
 ----                             MULTIGRID INFO                            ----
 -------------------------------------------------------------------------------
 count for grid        1:         148916          cutoff [a.u.]          600.00
 count for grid        2:          25948          cutoff [a.u.]          200.00
 count for grid        3:          39229          cutoff [a.u.]           66.67
 count for grid        4:          14079          cutoff [a.u.]           22.22
 count for grid        5:            960          cutoff [a.u.]            7.41
 total gridlevel count  :         229132

 -------------------------------------------------------------------------------
 -                                                                             -
 -                         MESSAGE PASSING PERFORMANCE                         -
 -                                                                             -
 -------------------------------------------------------------------------------

 ROUTINE             CALLS      AVE VOLUME [Bytes]
 MP_Group                6
 MP_Bcast             4945                 689252.
 MP_Allreduce        12925                  14801.
 MP_Sync              1649
 MP_Alltoall          4670                4734876.
 MP_SendRecv         44100                  86908.
 MP_ISendRecv        82782                  49158.
 MP_Wait            100384
 MP_comm_split          81
 MP_ISend            13750                 759801.
 MP_IRecv            15102                 691086.
 -------------------------------------------------------------------------------


 -------------------------------------------------------------------------------
 -                                                                             -
 -                           R E F E R E N C E S                               -
 -                                                                             -
 -------------------------------------------------------------------------------
 
 CP2K version 2023.1 (Development Version), the CP2K developers group (2023).
 CP2K is freely available from https://www.cp2k.org/ .

 Kuehne,Thomas D.; Iannuzzi,Marcella; Del Ben,Mauro;
 Rybkin,Vladimir V.; Seewald,Patrick; Stein,Frederick; Laino,Teodoro;
 Khaliullin,Rustam Z.; Schuett,Ole; Schiffmann,Florian; Golze,Dorothea;
 Wilhelm,Jan; Chulkov,Sergey; Bani-Hashemian,Mohammad Hossein;
 Weber,Valery; Borstnik,Urban; Taillefumier,Mathieu;
 Jakobovits,Alice Shoshana; Lazzaro,Alfio; Pabst,Hans; Mueller,Tiziano;
 Schade,Robert; Guidon,Manuel; Andermatt,Samuel; Holmberg,Nico;
 Schenter,Gregory K.; Hehn,Anna; Bussy,Augustin; Belleflamme,Fabian;
 Tabacchi,Gloria; Gloess,Andreas; Lass,Michael; Bethune,Iain;
 Mundy,Christopher J.; Plessl,Christian; Watkins,Matt;
 VandeVondele,Joost; Krack,Matthias; Hutter,Juerg. 
 The Journal of Chemical Physics, 152 (19), (2020). 
 CP2K: An electronic structure and molecular dynamics software package -
 Quickstep: Efficient and accurate electronic structure calculations.
 https://doi.org/10.1063/5.0007045

 Schuett, Ole; Messmer, Peter; Hutter, Juerg; VandeVondele, Joost. 
 Electronic Structure Calculations on Graphics Processing Units, John
 Wiley & Sons, Ltd, 173-190 (2016). 
 GPU-Accelerated Sparse Matrix-Matrix Multiplication for
 Linear Scaling Density Functional Theory.
 https://doi.org/10.1002/9781118670712.ch8

 Heinecke, A; Henry, G; Hutchinson, M; Pabst, H. 
 Proceedings of Intl. Supercomputing Conference, 981-991 (2016). 
 LIBXSMM: Accelerating Small Matrix Multiplications
 by Runtime Code Generation.
 https://doi.org/10.1109/SC.2016.83

 Borstnik, U; VandeVondele, J; Weber, V; Hutter, J. 
 PARALLEL COMPUTING, 40 (5-6), 47-58 (2014). 
 Sparse matrix multiplication: The distributed block-compressed sparse
 row library.
 https://doi.org/10.1016/j.parco.2014.03.012

 Hutter, J; Iannuzzi, M; Schiffmann, F; VandeVondele, J. 
 WIREs Comput Mol Sci., 4 (1), 15-25 (2014). 
 CP2K: atomistic simulations of condensed matter systems.
 https://doi.org/10.1002/wcms.1159

 Guidon, M; Hutter, J; VandeVondele, J. 
 JOURNAL OF CHEMICAL THEORY AND COMPUTATION, 5 (11), 3010-3021 (2009). 
 Robust Periodic Hartree-Fock Exchange for Large-Scale Simulations Using
 Gaussian Basis Sets.
 https://doi.org/10.1021/ct900494g

 Guidon, M; Schiffmann, F; Hutter, J; VandeVondele, J. 
 JOURNAL OF CHEMICAL PHYSICS, 128 (21), 214104 (2008). 
 Ab initio molecular dynamics using hybrid density functionals.
 https://doi.org/10.1063/1.2931945

 Frigo, M; Johnson, SG. 
 PROCEEDINGS OF THE IEEE, 93 (2), 216-231 (2005). 
 The design and implementation of FFTW3.
 https://doi.org/10.1109/JPROC.2004.840301

 Iannuzzi, M; Chassaing, T; Wallman, T; Hutter, J. 
 CHIMIA, 59 (7-8), 499-503 (2005). 
 Ground and excited state density functional calculations with the
 Gaussian and augmented-plane-wave method.
 https://doi.org/10.2533/000942905777676164

 VandeVondele, J; Hutter, J. 
 JOURNAL OF CHEMICAL PHYSICS, 118 (10), 4365-4369 (2003). 
 An efficient orbital transformation method for electronic structure
 calculations.
 https://doi.org/10.1063/1.1543154

 Martin,Richard L.. 
 The Journal of Chemical Physics, 118 (11), 4775-4777 (2003). 
 Natural transition orbitals.
 https://doi.org/10.1063/1.1558471

 Lippert, G; Hutter, J; Parrinello, M. 
 THEORETICAL CHEMISTRY ACCOUNTS, 103 (2), 124-140 (1999). 
 The Gaussian and augmented-plane-wave density functional method for ab
 initio molecular dynamics simulations.
 https://doi.org/10.1007/s002140050523

 Krack, M; Parrinello, M. 
 PHYSICAL CHEMISTRY CHEMICAL PHYSICS, 2 (10), 2105-2112 (2000). 
 All-electron ab-initio molecular dynamics.
 https://doi.org/10.1039/b001167n

 Martyna, GJ; Tuckerman, ME. 
 JOURNAL OF CHEMICAL PHYSICS, 110 (6), 2810-2821 (1999). 
 A reciprocal space based method for treating long range interactions in
 ab initio and force-field-based calculations in clusters.
 https://doi.org/10.1063/1.477923

 Perdew, JP; Burke, K; Ernzerhof, M. 
 PHYSICAL REVIEW LETTERS, 77 (18), 3865-3868 (1996). 
 Generalized gradient approximation made simple.
 https://doi.org/10.1103/PhysRevLett.77.3865


 -------------------------------------------------------------------------------
 -                                                                             -
 -                                T I M I N G                                  -
 -                                                                             -
 -------------------------------------------------------------------------------
 SUBROUTINE                       CALLS  ASD         SELF TIME        TOTAL TIME
                                MAXIMUM       AVERAGE  MAXIMUM  AVERAGE  MAXIMUM
 CP2K                                 1  1.0    0.024    0.041  135.647  135.648
 qs_energies                          1  2.0    0.000    0.000  134.493  134.493
 qs_energies_properties               1  3.0    0.000    0.000   96.198   96.199
 tddfpt                               1  4.0    0.000    0.000   96.198   96.198
 tddfpt_energies                      3  5.7    0.000    0.001   96.042   96.043
 tddfpt_davidson_solver               4  7.0    0.001    0.001   93.026   93.026
 tddfpt_compute_Aop_evects           14  8.0    0.000    0.000   92.559   92.560
 fhxc_kernel                         14  9.0    0.004    0.005   74.436   74.436
 rs_pw_transfer                    2013 11.8    0.012    0.016   39.204   40.099
 scf_env_do_scf                       1  3.0    0.000    0.000   37.404   37.405
 pw_transfer                       3991 12.1    0.180    0.271   32.531   34.320
 fft_wrap_pw1pw2                   3613 13.2    0.016    0.020   32.276   33.993
 fft_wrap_pw1pw2_600               2224 14.3    0.711    0.807   31.135   32.849
 scf_env_do_scf_inner_loop           32  4.0    0.001    0.001   32.321   32.322
 fft3d_ps                          3613 15.2   14.613   16.552   29.841   31.601
 qs_ks_update_qs_env                 34  5.0    0.000    0.000   29.614   29.617
 rebuild_ks_matrix                   32  6.0    0.000    0.000   29.612   29.615
 qs_ks_build_kohn_sham_matrix        32  7.0    0.004    0.005   29.612   29.615
 qs_rho_update_rho_low              175  9.0    0.002    0.003   24.142   24.144
 integrate_v_rspace                 172  9.8    0.005    0.006   23.063   23.715
 potential_pw2rs                    172 10.8    0.011    0.012   22.448   22.995
 calculate_rho_elec                 175 10.0    0.604    0.715   22.956   22.958
 integrate_four_center              312 10.8    2.778    5.443   21.435   21.474
 tddfpt_apply_xc_analytic           140 10.0    0.137    0.161   19.764   19.919
 density_rs2pw                      175 11.0    0.005    0.006   18.812   19.315
 xc_pw_derive                      1251 11.7    0.005    0.006   16.888   18.322
 tddfpt_apply_hfx                    14  9.0    0.002    0.002   17.980   17.980
 tddft_hfx_matrix                   280 10.0    0.003    0.004   17.265   17.297
 mp_alltoall_z22v                  3613 17.2   14.454   17.074   14.454   17.074
 mp_waitany                       13750 13.7   13.825   16.234   13.825   16.234
 prepare_gapw_den                   174  9.6    0.002    0.002   15.818   15.832
 integrate_four_center_main         312 11.8    0.039    0.093   13.290   13.992
 integrate_four_center_bin        61591 12.8   13.251   13.955   13.251   13.955
 yz_to_x                           1391 16.5    0.284    0.348   10.626   13.038
 rs_pw_transfer_PW2RS_600           275 12.5    1.362    1.420   11.826   12.330
 xc_calc_2nd_deriv_analytical       420 11.2    3.660    4.286   11.853   11.918
 rs_pw_transfer_RS2PW_600           350 12.8    1.761    1.958   10.471   11.879
 xc_pw_divergence                   172 11.6    0.002    0.002   10.050   11.457
 put_rho0_on_grid                   174 10.6    0.712    1.003   10.729   10.743
 mp_waitall_1                    242322 14.4    8.634   10.402    8.634   10.402
 mp_sum_d                          2294  9.4    8.573   10.066    8.573   10.066
 tddfpt_apply_coulomb                70 10.0    0.001    0.001    9.325    9.868
 calculate_xc_2nd_deriv_atom        140 10.0    0.366    3.328    1.004    9.522
 integrate_vhg0_rspace              102 10.1    0.180    0.258    8.158    8.188
 mp_sendrecv_dv                   44100 14.0    7.292    7.733    7.292    7.733
 mp_sync                           1649 12.5    3.393    7.478    3.393    7.478
 sum_up_and_integrate                32  8.0    0.028    0.031    6.946    6.972
 gaVxcgb_GC                         172 10.6    0.675    6.960    0.675    6.960
 qs_vxc_create                       32  8.0    0.000    0.000    6.420    6.420
 xc_vxc_pw_create                    32  9.0    0.148    0.166    6.420    6.420
 pw_poisson_solve                   102 10.1    0.051    0.053    4.882    5.426
 rs_pw_transfer_PW2RS_200           172 12.8    1.272    1.344    4.951    5.373
 xc_rho_set_and_dset_create          34  9.9    0.045    0.048    4.301    5.265
 pw_integral_ab                     102 11.1    0.429    0.434    4.663    5.211
 init_scf_loop                        2  4.0    0.000    0.000    5.083    5.083
 x_to_yz                           1528 15.9    0.370    0.449    4.466    4.892
 rs_pw_transfer_RS2PW_200           175 13.0    0.801    0.849    4.094    4.544
 mp_sum_dm                         4637 11.0    3.937    4.239    3.937    4.239
 hfx_ks_matrix                       32  8.0    0.001    0.001    4.175    4.184
 calculate_rho_atom                 348 10.6    1.184    3.953    1.184    3.954
 xc_functional_eval                 378 11.4    0.000    0.001    3.017    3.870
 pbe_lda_eval                       377 12.4    2.755    3.527    2.755    3.527
 grid_collocate_task_list           175 11.0    3.188    3.495    3.188    3.495
 rs_grid_zero                       552 12.4    3.306    3.319    3.306    3.319
 mp_sum_dv                         5797 10.9    2.847    3.173    2.847    3.173
 -------------------------------------------------------------------------------

 The number of warnings for this run is : 1
 
 -------------------------------------------------------------------------------
  **** **** ******  **  PROGRAM ENDED AT                 2023-07-03 14:58:14.284
 ***** ** ***  *** **   PROGRAM RAN ON                                      n191
 **    ****   ******    PROGRAM RAN BY                                  suphc355
 ***** **    ** ** **   PROGRAM PROCESS ID                               1335885
  **** **  *******  **  PROGRAM STOPPED IN /work_beegfs/suphc355/pbe0_bm_final/o
                                           _aren/cp2k
