 DBCSR| CPU Multiplication driver                                           XSMM (U)
 DBCSR| Multrec recursion limit                                              512 (U)
 DBCSR| Multiplication stack size                                           1000 (D)
 DBCSR| Maximum elements for images                                    UNLIMITED (U)
 DBCSR| Multiplicative factor virtual images                                   1 (U)
 DBCSR| Use multiplication densification                                       T (D)
 DBCSR| Multiplication size stacks                                             3 (U)
 DBCSR| Use memory pool for CPU allocation                                     F (U)
 DBCSR| Number of 3D layers                                               SINGLE (U)
 DBCSR| Use MPI memory allocation                                              F (U)
 DBCSR| Use RMA algorithm                                                      F (U)
 DBCSR| Use Communication thread                                               T (U)
 DBCSR| Communication thread load                                             83 (D)
 DBCSR| MPI: My process id                                                     0
 DBCSR| MPI: Number of processes                                             128
 DBCSR| OMP: Current number of threads                                         2
 DBCSR| OMP: Max number of threads                                             2
 DBCSR| Split modifier for TAS multiplication algorithm                  1.0E+00 (U)


  **** **** ******  **  PROGRAM STARTED AT               2023-12-06 14:06:58.256
 ***** ** ***  *** **   PROGRAM STARTED ON                           nesh-srp138
 **    ****   ******    PROGRAM STARTED BY                              suphc355
 ***** **    ** ** **   PROGRAM PROCESS ID                               1984029
  **** **  *******  **  PROGRAM STARTED IN /gxfs_work/cau/suphc355/benchmark_pbe
                                           0/pbe0_bm_ae/o_aren

 CP2K| version string:                 CP2K version 2023.2 (Development Version)
 CP2K| source code revision number:                                  git:845a3ae
 CP2K| cp2kflags: omp libint fftw3 libxc parallel mpi_f08 scalapack cosma xsmm s
 CP2K|            pglib mkl
 CP2K| is freely available from                            https://www.cp2k.org/
 CP2K| Program compiled at                           Fr 1. Dez 12:58:35 CET 2023
 CP2K| Program compiled on                                           nesh-login3
 CP2K| Program compiled for                                                local
 CP2K| Data directory path            /gxfs_home/cau/suphc355/software/cp2k/data
 CP2K| Input file name                                                   les.inp
 
 GLOBAL| Force Environment number                                              1
 GLOBAL| Basis set file name                                     EMSL_BASIS_SETS
 GLOBAL| Potential file name                                           POTENTIAL
 GLOBAL| MM Potential file name                                     MM_POTENTIAL
 GLOBAL| Coordinate file name                                            lit.xyz
 GLOBAL| Method name                                                        CP2K
 GLOBAL| Project name                                               benzyne_less
 GLOBAL| Run type                                                         ENERGY
 GLOBAL| FFT library                                                       FFTW3
 GLOBAL| Diagonalization library                                       ScaLAPACK
 GLOBAL| DGEMM library                                                      BLAS
 GLOBAL| Orthonormality check for eigenvectors                          DISABLED
 GLOBAL| Matrix multiplication library                                     COSMA
 GLOBAL| All-to-all communication in single precision                          F
 GLOBAL| FFTs using library dependent lengths                                  F
 GLOBAL| Grid backend                                                       AUTO
 GLOBAL| Global print level                                               MEDIUM
 GLOBAL| MPI I/O enabled                                                       T
 GLOBAL| Total number of message passing processes                           128
 GLOBAL| Number of threads for this process                                    2
 GLOBAL| This output is from process                                           0
 GLOBAL| Stack size for threads created by OpenMP (OMP_STACKSIZE)        default
 GLOBAL| CPU model name                              Intel(R) Xeon(R) Gold 6426Y
 GLOBAL| CPUID                                                              1003

 MEMORY| system memory details [Kb]
 MEMORY|                        rank 0           min           max       average
 MEMORY| MemTotal            263786136     263786136     263786136     263786136
 MEMORY| MemFree             244146440     244146440     244363928     244221749
 MEMORY| Buffers                829592        775032        856092        826693
 MEMORY| Cached                 724076        687308        748208        724350
 MEMORY| Slab                   517204        489884        517204        500451
 MEMORY| SReclaimable           143568        122668        143568        135053
 MEMORY| MemLikelyFree       245843676     245843676     245948936     245907845


 *** Fundamental physical constants (SI units) ***

 *** Literature: B. J. Mohr and B. N. Taylor,
 ***             CODATA recommended values of the fundamental physical
 ***             constants: 2006, Web Version 5.1
 ***             http://physics.nist.gov/constants

 Speed of light in vacuum [m/s]                             2.99792458000000E+08
 Magnetic constant or permeability of vacuum [N/A**2]       1.25663706143592E-06
 Electric constant or permittivity of vacuum [F/m]          8.85418781762039E-12
 Planck constant (h) [J*s]                                  6.62606896000000E-34
 Planck constant (h-bar) [J*s]                              1.05457162825177E-34
 Elementary charge [C]                                      1.60217648700000E-19
 Electron mass [kg]                                         9.10938215000000E-31
 Electron g factor [ ]                                     -2.00231930436220E+00
 Proton mass [kg]                                           1.67262163700000E-27
 Fine-structure constant                                    7.29735253760000E-03
 Rydberg constant [1/m]                                     1.09737315685270E+07
 Avogadro constant [1/mol]                                  6.02214179000000E+23
 Boltzmann constant [J/K]                                   1.38065040000000E-23
 Atomic mass unit [kg]                                      1.66053878200000E-27
 Bohr radius [m]                                            5.29177208590000E-11

 *** Conversion factors ***

 [u] -> [a.u.]                                              1.82288848426455E+03
 [Angstrom] -> [Bohr] = [a.u.]                              1.88972613288564E+00
 [a.u.] = [Bohr] -> [Angstrom]                              5.29177208590000E-01
 [a.u.] -> [s]                                              2.41888432650478E-17
 [a.u.] -> [fs]                                             2.41888432650478E-02
 [a.u.] -> [J]                                              4.35974393937059E-18
 [a.u.] -> [N]                                              8.23872205491840E-08
 [a.u.] -> [K]                                              3.15774647902944E+05
 [a.u.] -> [kJ/mol]                                         2.62549961709828E+03
 [a.u.] -> [kcal/mol]                                       6.27509468713739E+02
 [a.u.] -> [Pa]                                             2.94210107994716E+13
 [a.u.] -> [bar]                                            2.94210107994716E+08
 [a.u.] -> [atm]                                            2.90362800883016E+08
 [a.u.] -> [eV]                                             2.72113838565563E+01
 [a.u.] -> [Hz]                                             6.57968392072181E+15
 [a.u.] -> [1/cm] (wave numbers)                            2.19474631370540E+05
 [a.u./Bohr**2] -> [1/cm]                                   5.14048714338585E+03
 

 CELL_TOP| Volume [angstrom^3]:                                      1000.000000
 CELL_TOP| Vector a [angstrom    10.000     0.000     0.000   |a| =    10.000000
 CELL_TOP| Vector b [angstrom     0.000    10.000     0.000   |b| =    10.000000
 CELL_TOP| Vector c [angstrom     0.000     0.000    10.000   |c| =    10.000000
 CELL_TOP| Angle (b,c), alpha [degree]:                                90.000000
 CELL_TOP| Angle (a,c), beta  [degree]:                                90.000000
 CELL_TOP| Angle (a,b), gamma [degree]:                                90.000000
 CELL_TOP| Numerically orthorhombic:                                         YES
 CELL_TOP| Periodicity                                                      NONE

 CELL| Volume [angstrom^3]:                                          1000.000000
 CELL| Vector a [angstrom]:      10.000     0.000     0.000   |a| =    10.000000
 CELL| Vector b [angstrom]:       0.000    10.000     0.000   |b| =    10.000000
 CELL| Vector c [angstrom]:       0.000     0.000    10.000   |c| =    10.000000
 CELL| Angle (b,c), alpha [degree]:                                    90.000000
 CELL| Angle (a,c), beta  [degree]:                                    90.000000
 CELL| Angle (a,b), gamma [degree]:                                    90.000000
 CELL| Numerically orthorhombic:                                             YES
 CELL| Periodicity                                                          NONE

 CELL_REF| Volume [angstrom^3]:                                      1000.000000
 CELL_REF| Vector a [angstrom    10.000     0.000     0.000   |a| =    10.000000
 CELL_REF| Vector b [angstrom     0.000    10.000     0.000   |b| =    10.000000
 CELL_REF| Vector c [angstrom     0.000     0.000    10.000   |c| =    10.000000
 CELL_REF| Angle (b,c), alpha [degree]:                                90.000000
 CELL_REF| Angle (a,c), beta  [degree]:                                90.000000
 CELL_REF| Angle (a,b), gamma [degree]:                                90.000000
 CELL_REF| Numerically orthorhombic:                                         YES
 CELL_REF| Periodicity                                                      NONE

 *******************************************************************************
 *******************************************************************************
 **                                                                           **
 **     #####                         ##              ##                      **
 **    ##   ##            ##          ##              ##                      **
 **   ##     ##                       ##            ######                    **
 **   ##     ##  ##   ##  ##   #####  ##  ##   ####   ##    #####    #####    **
 **   ##     ##  ##   ##  ##  ##      ## ##   ##      ##   ##   ##  ##   ##   **
 **   ##  ## ##  ##   ##  ##  ##      ####     ###    ##   ######   ######    **
 **    ##  ###   ##   ##  ##  ##      ## ##      ##   ##   ##       ##        **
 **     #######   #####   ##   #####  ##  ##  ####    ##    #####   ##        **
 **           ##                                                    ##        **
 **                                                                           **
 **                                                ... make the atoms dance   **
 **                                                                           **
 **            Copyright (C) by CP2K developers group (2000-2023)             **
 **                      J. Chem. Phys. 152, 194103 (2020)                    **
 **                                                                           **
 *******************************************************************************

 DFT| Spin restricted Kohn-Sham (RKS) calculation                            RKS
 DFT| Multiplicity                                                             1
 DFT| Number of spin states                                                    1
 DFT| Charge                                                                   0
 DFT| Self-interaction correction (SIC)                                       NO
 DFT| Cutoffs: density                                              1.000000E-10
 DFT|          gradient                                             1.000000E-10
 DFT|          tau                                                  1.000000E-10
 DFT|          cutoff_smoothing_range                               0.000000E+00
 DFT| XC density smoothing                                                  NONE
 DFT| XC derivatives                                                          PW

 FUNCTIONAL| PBE:
 FUNCTIONAL| J.P.Perdew, K.Burke, M.Ernzerhof, Phys. Rev. Letter, vol. 77, n 18,
 FUNCTIONAL|  pp. 3865-3868, (1996)sx=0.750sc=1.000{spin unpolarized}           


 QS| Method:                                                                GAPW
 QS| Density plane wave grid type                        NON-SPHERICAL FULLSPACE
 QS| Number of grid levels:                                                    5
 QS| Density cutoff [a.u.]:                                                600.0
 QS| Multi grid cutoff [a.u.]: 1) grid level                               600.0
 QS|                           2) grid level                               200.0
 QS|                           3) grid level                                66.7
 QS|                           4) grid level                                22.2
 QS|                           5) grid level                                 7.4
 QS| Grid level progression factor:                                          3.0
 QS| Relative density cutoff [a.u.]:                                        40.0
 QS| Interaction thresholds: eps_pgf_orb:                                1.0E-30
 QS|                         eps_filter_matrix:                          0.0E+00
 QS|                         eps_core_charge:                            1.0E-17
 QS|                         eps_rho_gspace:                             1.0E-15
 QS|                         eps_rho_rspace:                             1.0E-15
 QS|                         eps_gvg_rspace:                             3.2E-08
 QS|                         eps_ppl:                                    1.0E-02
 QS|                         eps_ppnl:                                   3.2E-10
 QS| GAPW|      One center basis from orbital basis primitives
 QS| GAPW|                   eps_fit:                                    1.0E-04
 QS| GAPW|                   eps_iso:                                    1.0E-12
 QS| GAPW|                   eps_svd:                                    1.0E-08
 QS| GAPW|                   eps_cpc:                                    1.0E-15
 QS| GAPW|   atom-r-grid: quadrature:                                     GC_LOG
 QS| GAPW|      atom-s-grid:  max l :                                          6
 QS| GAPW|      max_l_rho0 :                                                   2


 ATOMIC KIND INFORMATION

  1. Atomic kind: C                                     Number of atoms:       6

     Orbital Basis Set                                        Ahlrichs-def2-TZVP

       Number of orbital shell sets:                                          11
       Number of orbital shells:                                              11
       Number of primitive Cartesian functions:                               20
       Number of Cartesian basis functions:                                   36
       Number of spherical basis functions:                                   31
       Norm type:                                                              2

       Normalised Cartesian orbitals:

                        Set   Shell   Orbital            Exponent    Coefficient

                          1       1    1s            13575.349682       0.543591
                                                      2035.233368       1.014554
                                                       463.225624       1.731573
                                                       131.200196       2.691038
                                                        42.853016       3.604455
                                                        15.584186       3.702556

                          2       1    1s                6.206714       1.838354
                                                         2.576490       0.544758

                          3       1    1s                0.576963       0.471815

                          4       1    1s                0.229728       0.236494

                          5       1    1s                0.095164       0.122114

                          6       1    1px              34.697232       1.359665
                                                         7.958262       1.451259
                                                         2.378083       1.270923
                                                         0.814332       0.802572
                          6       1    1py              34.697232       1.359665
                                                         7.958262       1.451259
                                                         2.378083       1.270923
                                                         0.814332       0.802572
                          6       1    1pz              34.697232       1.359665
                                                         7.958262       1.451259
                                                         2.378083       1.270923
                                                         0.814332       0.802572

                          7       1    1px               0.288875       0.301876
                          7       1    1py               0.288875       0.301876
                          7       1    1pz               0.288875       0.301876

                          8       1    1px               0.100568       0.080727
                          8       1    1py               0.100568       0.080727
                          8       1    1pz               0.100568       0.080727

                          9       1    1dx2              1.097000       1.935401
                          9       1    1dxy              1.097000       3.352214
                          9       1    1dxz              1.097000       3.352214
                          9       1    1dy2              1.097000       1.935401
                          9       1    1dyz              1.097000       3.352214
                          9       1    1dz2              1.097000       1.935401

                         10       1    1dx2              0.318000       0.221644
                         10       1    1dxy              0.318000       0.383899
                         10       1    1dxz              0.318000       0.383899
                         10       1    1dy2              0.318000       0.221644
                         10       1    1dyz              0.318000       0.383899
                         10       1    1dz2              0.318000       0.221644

                         11       1    1fx3              0.761000       0.796288
                         11       1    1fx2y             0.761000       1.780553
                         11       1    1fx2z             0.761000       1.780553
                         11       1    1fxy2             0.761000       1.780553
                         11       1    1fxyz             0.761000       3.084008
                         11       1    1fxz2             0.761000       1.780553
                         11       1    1fy3              0.761000       0.796288
                         11       1    1fy2z             0.761000       1.780553
                         11       1    1fyz2             0.761000       1.780553
                         11       1    1fz3              0.761000       0.796288

       Atomic covalent radius [Angstrom]:                                  0.770

       Atomic van der Waals radius [Angstrom]:                             1.700

     The atoms of this atomic kind are PAW atoms (GAPW):
       Hard Gaussian function radius:                                      1.512
       Rho0 radius:                                                        1.512
       Maximum GTO radius used for PAW projector construction:            24.566

     GAPW Soft Basis Set                                 Ahlrichs-def2-TZVP_soft

       Number of orbital shell sets:                                          11
       Number of orbital shells:                                              11
       Number of primitive Cartesian functions:                               11
       Number of Cartesian basis functions:                                   36
       Number of spherical basis functions:                                   31
       Norm type:                                                              2

       Normalised Cartesian orbitals:

                        Set   Shell   Orbital            Exponent    Coefficient

                          1       1    1s         

                          2       1    1s                2.576490       0.544758

                          3       1    1s                0.576963       0.471815

                          4       1    1s                0.229728       0.236494

                          5       1    1s                0.095164       0.122114

                          6       1    1px               2.378083       1.270923
                                                         0.814332       0.802572
                          6       1    1py               2.378083       1.270923
                                                         0.814332       0.802572
                          6       1    1pz               2.378083       1.270923
                                                         0.814332       0.802572

                          7       1    1px               0.288875       0.301876
                          7       1    1py               0.288875       0.301876
                          7       1    1pz               0.288875       0.301876

                          8       1    1px               0.100568       0.080727
                          8       1    1py               0.100568       0.080727
                          8       1    1pz               0.100568       0.080727

                          9       1    1dx2              1.097000       1.935401
                          9       1    1dxy              1.097000       3.352214
                          9       1    1dxz              1.097000       3.352214
                          9       1    1dy2              1.097000       1.935401
                          9       1    1dyz              1.097000       3.352214
                          9       1    1dz2              1.097000       1.935401

                         10       1    1dx2              0.318000       0.221644
                         10       1    1dxy              0.318000       0.383899
                         10       1    1dxz              0.318000       0.383899
                         10       1    1dy2              0.318000       0.221644
                         10       1    1dyz              0.318000       0.383899
                         10       1    1dz2              0.318000       0.221644

                         11       1    1fx3              0.761000       0.796288
                         11       1    1fx2y             0.761000       1.780553
                         11       1    1fx2z             0.761000       1.780553
                         11       1    1fxy2             0.761000       1.780553
                         11       1    1fxyz             0.761000       3.084008
                         11       1    1fxz2             0.761000       1.780553
                         11       1    1fy3              0.761000       0.796288
                         11       1    1fy2z             0.761000       1.780553
                         11       1    1fyz2             0.761000       1.780553
                         11       1    1fz3              0.761000       0.796288

     AE Potential information for                                            ALL

       Description:                                       All-electron potential
                                          Krack, Parrinello, PCCP 2, 2105 (2000)

       Gaussian exponent of the core charge distribution:               4.109048
       Electronic configuration (s p d ...):                           4   2   0

  2. Atomic kind: H                                     Number of atoms:       4

     Orbital Basis Set                                        Ahlrichs-def2-TZVP

       Number of orbital shell sets:                                           4
       Number of orbital shells:                                               4
       Number of primitive Cartesian functions:                                6
       Number of Cartesian basis functions:                                    6
       Number of spherical basis functions:                                    6
       Norm type:                                                              2

       Normalised Cartesian orbitals:

                        Set   Shell   Orbital            Exponent    Coefficient

                          1       1    1s               34.061341       0.255630
                                                         5.123575       0.461360
                                                         1.164663       0.681121

                          2       1    1s                0.327230       0.308355

                          3       1    1s                0.103072       0.129648

                          4       1    1px               0.800000       1.078456
                          4       1    1py               0.800000       1.078456
                          4       1    1pz               0.800000       1.078456

       Atomic covalent radius [Angstrom]:                                  0.320

       Atomic van der Waals radius [Angstrom]:                             1.090

     The atoms of this atomic kind are PAW atoms (GAPW):
       Hard Gaussian function radius:                                      1.200
       Rho0 radius:                                                        1.200
       Maximum GTO radius used for PAW projector construction:            24.566

     GAPW Soft Basis Set                                 Ahlrichs-def2-TZVP_soft

       Number of orbital shell sets:                                           4
       Number of orbital shells:                                               4
       Number of primitive Cartesian functions:                                5
       Number of Cartesian basis functions:                                    6
       Number of spherical basis functions:                                    6
       Norm type:                                                              2

       Normalised Cartesian orbitals:

                        Set   Shell   Orbital            Exponent    Coefficient

                          1       1    1s                5.123575       0.461360
                                                         1.164663       0.681121

                          2       1    1s                0.327230       0.308355

                          3       1    1s                0.103072       0.129648

                          4       1    1px               0.800000       1.078456
                          4       1    1py               0.800000       1.078456
                          4       1    1pz               0.800000       1.078456

     AE Potential information for                                            ALL

       Description:                                       All-electron potential
                                          Krack, Parrinello, PCCP 2, 2105 (2000)

       Gaussian exponent of the core charge distribution:              12.500000
       Electronic configuration (s p d ...):                           1   0   0


 MOLECULE KIND INFORMATION


 All atoms are their own molecule, skipping detailed information


 TOTAL NUMBERS AND MAXIMUM NUMBERS

  Total number of            - Atomic kinds:                                   2
                             - Atoms:                                         10
                             - Shell sets:                                    82
                             - Shells:                                        82
                             - Primitive Cartesian functions:                144
                             - Cartesian basis functions:                    240
                             - Spherical basis functions:                    210

  Maximum angular momentum of the orbital basis functions:                     3


 MODULE QUICKSTEP: ATOMIC COORDINATES IN ANGSTROM

   Atom Kind Element         X             Y             Z       Z(eff)     Mass
      1    1 C     6      5.621448      5.000000      3.381387   6.0000  12.0107
      2    1 C     6      4.378552      5.000000      3.381387   6.0000  12.0107
      3    1 C     6      3.543654      5.000000      4.480201   6.0000  12.0107
      4    1 C     6      4.298499      5.000000      5.669621   6.0000  12.0107
      5    1 C     6      5.701501      5.000000      5.669621   6.0000  12.0107
      6    1 C     6      6.456346      5.000000      4.480201   6.0000  12.0107
      7    2 H     1      2.462129      5.000000      4.477385   1.0000   1.0079
      8    2 H     1      3.773336      5.000000      6.618613   1.0000   1.0079
      9    2 H     1      6.226664      5.000000      6.618613   1.0000   1.0079
     10    2 H     1      7.537871      5.000000      4.477385   1.0000   1.0079



 SCF PARAMETERS         Density guess:                                   RESTART
                        --------------------------------------------------------
                        max_scf:                                              20
                        max_scf_history:                                       0
                        max_diis:                                              4
                        --------------------------------------------------------
                        eps_scf:                                        1.00E-07
                        eps_scf_history:                                0.00E+00
                        eps_diis:                                       1.00E-01
                        eps_eigval:                                     1.00E-05
                        --------------------------------------------------------
                        level_shift [a.u.]:                             0.000000
                        --------------------------------------------------------
                        Outer loop SCF in use 
                        No variables optimised in outer loop
                        eps_scf                                         1.00E-07
                        max_scf                                              200
                        No outer loop optimization
                        step_size                                       5.00E-01

 PW_GRID| Information for grid number                                          1
 PW_GRID| Grid distributed over                                   128 processors
 PW_GRID| Real space group dimensions                                   128    1
 PW_GRID| the grid is blocked:                                                NO
 PW_GRID| Cutoff [a.u.]                                                   1200.0
 PW_GRID| spherical cutoff:                                                   NO
 PW_GRID|   Bounds   1           -150     149                Points:         300
 PW_GRID|   Bounds   2           -150     149                Points:         300
 PW_GRID|   Bounds   3           -150     149                Points:         300
 PW_GRID| Volume element (a.u.^3)  0.2499E-03     Volume (a.u.^3)      6748.3346
 PW_GRID| Grid span                                                    FULLSPACE
 PW_GRID|   Distribution                         Average         Max         Min
 PW_GRID|   G-Vectors                           210937.5      211200      210900
 PW_GRID|   G-Rays                                 703.1         704         703
 PW_GRID|   Real Space Points                   210937.5      270000      180000

 PW_GRID| Information for grid number                                          2
 PW_GRID| Number of the reference grid                                         1
 PW_GRID| Grid distributed over                                   128 processors
 PW_GRID| Real space group dimensions                                   128    1
 PW_GRID| the grid is blocked:                                                NO
 PW_GRID| Cutoff [a.u.]                                                    600.0
 PW_GRID| spherical cutoff:                                                   NO
 PW_GRID|   Bounds   1           -108     107                Points:         216
 PW_GRID|   Bounds   2           -108     107                Points:         216
 PW_GRID|   Bounds   3           -108     107                Points:         216
 PW_GRID| Volume element (a.u.^3)  0.6696E-03     Volume (a.u.^3)      6748.3346
 PW_GRID| Grid span                                                    FULLSPACE
 PW_GRID|   Distribution                         Average         Max         Min
 PW_GRID|   G-Vectors                            78732.0       79056       78408
 PW_GRID|   G-Rays                                 364.5         366         363
 PW_GRID|   Real Space Points                    78732.0       93312       46656

 PW_GRID| Information for grid number                                          3
 PW_GRID| Number of the reference grid                                         2
 PW_GRID| Grid distributed over                                   128 processors
 PW_GRID| Real space group dimensions                                     8   16
 PW_GRID| the grid is blocked:                                                NO
 PW_GRID| Cutoff [a.u.]                                                    200.0
 PW_GRID| spherical cutoff:                                                   NO
 PW_GRID|   Bounds   1            -62      62                Points:         125
 PW_GRID|   Bounds   2            -62      62                Points:         125
 PW_GRID|   Bounds   3            -62      62                Points:         125
 PW_GRID| Volume element (a.u.^3)  0.3455E-02     Volume (a.u.^3)      6748.3346
 PW_GRID| Grid span                                                    FULLSPACE
 PW_GRID|   Distribution                         Average         Max         Min
 PW_GRID|   G-Vectors                            15258.8       15875       14750
 PW_GRID|   G-Rays                                 122.1         127         118
 PW_GRID|   Real Space Points                    15258.8       16000       13125

 PW_GRID| Information for grid number                                          4
 PW_GRID| Number of the reference grid                                         2
 PW_GRID| Grid distributed over                                   128 processors
 PW_GRID| Real space group dimensions                                     8   16
 PW_GRID| the grid is blocked:                                                NO
 PW_GRID| Cutoff [a.u.]                                                     66.7
 PW_GRID| spherical cutoff:                                                   NO
 PW_GRID|   Bounds   1            -36      35                Points:          72
 PW_GRID|   Bounds   2            -36      35                Points:          72
 PW_GRID|   Bounds   3            -36      35                Points:          72
 PW_GRID| Volume element (a.u.^3)  0.1808E-01     Volume (a.u.^3)      6748.3346
 PW_GRID| Grid span                                                    FULLSPACE
 PW_GRID|   Distribution                         Average         Max         Min
 PW_GRID|   G-Vectors                             2916.0        2952        2880
 PW_GRID|   G-Rays                                  40.5          41          40
 PW_GRID|   Real Space Points                     2916.0        3240        2592

 PW_GRID| Information for grid number                                          5
 PW_GRID| Number of the reference grid                                         2
 PW_GRID| Grid distributed over                                   128 processors
 PW_GRID| Real space group dimensions                                     8   16
 PW_GRID| the grid is blocked:                                                NO
 PW_GRID| Cutoff [a.u.]                                                     22.2
 PW_GRID| spherical cutoff:                                                   NO
 PW_GRID|   Bounds   1            -22      22                Points:          45
 PW_GRID|   Bounds   2            -22      22                Points:          45
 PW_GRID|   Bounds   3            -22      22                Points:          45
 PW_GRID| Volume element (a.u.^3)  0.7406E-01     Volume (a.u.^3)      6748.3346
 PW_GRID| Grid span                                                    FULLSPACE
 PW_GRID|   Distribution                         Average         Max         Min
 PW_GRID|   G-Vectors                              711.9         810         630
 PW_GRID|   G-Rays                                  15.8          18          14
 PW_GRID|   Real Space Points                      711.9         810         450

 PW_GRID| Information for grid number                                          6
 PW_GRID| Number of the reference grid                                         2
 PW_GRID| Grid distributed over                                   128 processors
 PW_GRID| Real space group dimensions                                     8   16
 PW_GRID| the grid is blocked:                                                NO
 PW_GRID| Cutoff [a.u.]                                                      7.4
 PW_GRID| spherical cutoff:                                                   NO
 PW_GRID|   Bounds   1            -12      11                Points:          24
 PW_GRID|   Bounds   2            -12      11                Points:          24
 PW_GRID|   Bounds   3            -12      11                Points:          24
 PW_GRID| Volume element (a.u.^3)  0.4882         Volume (a.u.^3)      6748.3346
 PW_GRID| Grid span                                                    FULLSPACE
 PW_GRID|   Distribution                         Average         Max         Min
 PW_GRID|   G-Vectors                              108.0         120          96
 PW_GRID|   G-Rays                                   4.5           5           4
 PW_GRID|   Real Space Points                      108.0         144          72

 POISSON| Solver                                          Martyna-Tuckerman (MT)
 POISSON| MT| Alpha                                                        7.000
 POISSON| MT| Relative cutoff                                                2.0
 POISSON| Periodicity                                                       NONE

 RS_GRID| Information for grid number                                          2
 RS_GRID|   Bounds   1           -108     107                Points:         216
 RS_GRID|   Bounds   2           -108     107                Points:         216
 RS_GRID|   Bounds   3           -108     107                Points:         216
 RS_GRID| Real space distribution over                                  4 groups
 RS_GRID| Real space distribution along direction                              1
 RS_GRID| Border size                                                         37
 RS_GRID| Real space distribution over                                  4 groups
 RS_GRID| Real space distribution along direction                              2
 RS_GRID| Border size                                                         37
 RS_GRID| Real space distribution over                                  8 groups
 RS_GRID| Real space distribution along direction                              3
 RS_GRID| Border size                                                         37
 RS_GRID|   Distribution                         Average         Max         Min
 RS_GRID|   Planes                                 128.0         128         128
 RS_GRID|   Distribution                         Average         Max         Min
 RS_GRID|   Planes                                 128.0         128         128
 RS_GRID|   Distribution                         Average         Max         Min
 RS_GRID|   Planes                                 101.0         101         101

 RS_GRID| Information for grid number                                          3
 RS_GRID|   Bounds   1            -62      62                Points:         125
 RS_GRID|   Bounds   2            -62      62                Points:         125
 RS_GRID|   Bounds   3            -62      62                Points:         125
 RS_GRID| Real space distribution over                                  4 groups
 RS_GRID| Real space distribution along direction                              1
 RS_GRID| Border size                                                         34
 RS_GRID| Real space distribution over                                  4 groups
 RS_GRID| Real space distribution along direction                              2
 RS_GRID| Border size                                                         34
 RS_GRID| Real space distribution over                                  8 groups
 RS_GRID| Real space distribution along direction                              3
 RS_GRID| Border size                                                         34
 RS_GRID|   Distribution                         Average         Max         Min
 RS_GRID|   Planes                                  99.2         100          99
 RS_GRID|   Distribution                         Average         Max         Min
 RS_GRID|   Planes                                  99.2         100          99
 RS_GRID|   Distribution                         Average         Max         Min
 RS_GRID|   Planes                                  83.6          84          83

 RS_GRID| Information for grid number                                          4
 RS_GRID|   Bounds   1            -36      35                Points:          72
 RS_GRID|   Bounds   2            -36      35                Points:          72
 RS_GRID|   Bounds   3            -36      35                Points:          72
 RS_GRID| Real space fully replicated
 RS_GRID| Group size                                                           1

 RS_GRID| Information for grid number                                          5
 RS_GRID|   Bounds   1            -22      22                Points:          45
 RS_GRID|   Bounds   2            -22      22                Points:          45
 RS_GRID|   Bounds   3            -22      22                Points:          45
 RS_GRID| Real space fully replicated
 RS_GRID| Group size                                                           1

 RS_GRID| Information for grid number                                          6
 RS_GRID|   Bounds   1            -12      11                Points:          24
 RS_GRID|   Bounds   2            -12      11                Points:          24
 RS_GRID|   Bounds   3            -12      11                Points:          24
 RS_GRID| Real space fully replicated
 RS_GRID| Group size                                                           1

  HFX_INFO| Replica ID:                                                        1
  HFX_INFO| FRACTION:                                               0.2500000000
  HFX_INFO| Interaction Potential:                                       COULOMB
  HFX_INFO| EPS_SCHWARZ:                                                 1.0E-10
  HFX_INFO| EPS_SCHWARZ_FORCES                                           1.0E-06
  HFX_INFO| EPS_STORAGE_SCALING:                                         1.0E+00
  HFX_INFO| NBINS:                                                            64
  HFX_INFO| BLOCK_SIZE:                                                        1
  HFX_INFO| Number of periodic shells considered:                           NONE
  HFX_INFO| Number of periodic cells considered:                            NONE


 Number of electrons:                                                         40
 Number of occupied orbitals:                                                 20
 Number of molecular orbitals:                                                20

 Number of orbital functions:                                                210
 Number of independent orbital functions:                                    210

 Extrapolation method: initial_guess


 SCF WAVEFUNCTION OPTIMIZATION

  ----------------------------------- OT ---------------------------------------
  Minimizer      : DIIS                : direct inversion
                                         in the iterative subspace
                                         using   7 DIIS vectors
                                         safer DIIS on
  Preconditioner : FULL_ALL            : diagonalization, state selective
  Precond_solver : DEFAULT
  stepsize       :    0.15000000                  energy_gap     :    0.08000000
  eps_taylor     :   0.10000E-15                  max_taylor     :             4
  ----------------------------------- OT ---------------------------------------

  Step     Update method      Time    Convergence         Total energy    Change
  ------------------------------------------------------------------------------

  HFX_MEM_INFO| Est. max. program size before HFX [MiB]:                     469
  HFX_MEM_INFO| Number of cart. primitive ERI's calculated:           1752238143
  HFX_MEM_INFO| Number of sph. ERI's calculated:                       317098608
  HFX_MEM_INFO| Number of sph. ERI's stored in-core:                   317098608
  HFX_MEM_INFO| Number of sph. ERI's stored on disk:                           0
  HFX_MEM_INFO| Number of sph. ERI's calculated on the fly:                    0
  HFX_MEM_INFO| Total memory consumption ERI's RAM [MiB]:                    889
  HFX_MEM_INFO| Whereof max-vals [MiB]:                                        4
  HFX_MEM_INFO| Total compression factor ERI's RAM:                         2.72
  HFX_MEM_INFO| Total memory consumption ERI's disk [MiB]:                     0
  HFX_MEM_INFO| Total compression factor ERI's disk:                        0.00
  HFX_MEM_INFO| Size of density/Fock matrix [MiB]:                             0
  HFX_MEM_INFO| Size of buffers [MiB]:                                         0
  HFX_MEM_INFO| Est. max. program size after HFX  [MiB]:                     846

     1 OT DIIS     0.15E+00   36.1     0.00000003      -230.7055687696 -2.31E+02

  *** SCF run converged in     1 steps ***


  Electronic density on regular grids:        -28.6453563809       11.3546436191
  Core density on regular grids:               40.0000000000       -0.0000000000
  Hard and soft densities (Lebedev):          -58.1541569187      -46.7995182010
  Total Rho_soft + Rho1_hard - Rho1_soft      -39.9999950986
  Total charge density (r-space):               0.0000049014
  Total Rho_soft + Rho0_soft (g-space):         0.0000047676

  Overlap energy of the core charge distribution:               0.00004004611078
  Self energy of the core charge distribution:               -180.31837554978486
  Core Hamiltonian energy:                                    -42.04864521992138
  Hartree energy:                                              73.38390651096323
  Exchange-correlation energy:                                 -9.41213138868491
  Hartree-Fock Exchange energy:                                -8.10601960821342

  GAPW| Exc from hard and soft atomic rho1:                   -16.17345400143270
  GAPW| local Eh = 1 center integrals:                        -48.03088955864689

  Total energy:                                              -230.70556876961015

  outer SCF iter =    1 RMS gradient =   0.25E-07 energy =       -230.7055687696
  outer SCF loop converged in   1 iterations or    1 steps


 !-----------------------------------------------------------------------------!
                     Mulliken Population Analysis

 #  Atom  Element  Kind  Atomic population                           Net charge
       1     C        1          6.027337                             -0.027337
       2     C        1          6.027338                             -0.027338
       3     C        1          6.149092                             -0.149092
       4     C        1          6.134014                             -0.134014
       5     C        1          6.134014                             -0.134014
       6     C        1          6.149092                             -0.149092
       7     H        2          0.833585                              0.166415
       8     H        2          0.855971                              0.144029
       9     H        2          0.855971                              0.144029
      10     H        2          0.833586                              0.166414
 # Total charge                             40.000000                  0.000000

 !-----------------------------------------------------------------------------!

 !-----------------------------------------------------------------------------!
                           Hirshfeld Charges

  #Atom  Element  Kind  Ref Charge     Population                    Net charge
      1       C      1       6.000          6.064                        -0.064
      2       C      1       6.000          6.064                        -0.064
      3       C      1       6.000          6.439                        -0.439
      4       C      1       6.000          6.483                        -0.483
      5       C      1       6.000          6.483                        -0.483
      6       C      1       6.000          6.439                        -0.439
      7       H      2       1.000          0.503                         0.497
      8       H      2       1.000          0.506                         0.494
      9       H      2       1.000          0.506                         0.494
     10       H      2       1.000          0.503                         0.497

  Total Charge                                                            0.011
 !-----------------------------------------------------------------------------!

 *******************************************************************************
 **                                                                           **
 **         ######## #######   #######   ######## #######  ########           **
 **            ##    ##     ## ##     ## ##       ##   ##     ##              **
 **            ##    ##     ## ##     ## ######   #######     ##              **
 **            ##    ##     ## ##     ## ##       ##          ##              **
 **            ##    #######   #######   ##       ##          ##              **
 **                                                                           **
 *******************************************************************************
 KERNEL|                                                                    FULL
 FUNCTIONAL| PBE:
 FUNCTIONAL| J.P.Perdew, K.Burke, M.Ernzerhof, Phys. Rev. Letter, vol. 77, n 18,
 FUNCTIONAL|  pp. 3865-3868, (1996)sx=0.750sc=1.000{spin unpolarized}           
 KERNEL|                                                          Exact Exchange
 KERNEL| Spin symmetry of excitations                                    Triplet
 TDDFPT| Number of states calculated                                          10
 TDDFPT| Number of Davidson iterations                                        20
 TDDFPT| Davidson iteration convergence                                0.100E-07
 TDDFPT| Max. number of Krylov space vectors                                  60
 TDDFPT| Molecular Orbitals:        Spin       AOs       Occ      Virt     Total
 TDDFPT|                               1       210        20       190       210

 *******************************************************************************
 **                                                                           **
 **                            ####### ####### #######                        **
 **                        #   ##      ##   ## ##                             **
 **                       ###  ######  ##   ## ##                             **
 **                        #       ##  ##   ## ##                             **
 **                            ######  ####### #######                        **
 **                 Based on the xas module from Augustin Bussy               **
 *******************************************************************************
 
 -------------------------------------------------------------------------------
 -                      TDDFPT TRIPLET ENERGIES                                 -
 -------------------------------------------------------------------------------
 
 -------------------------------------------------------------------------------
 -                            TDDFPT Initial Guess                             -
 -------------------------------------------------------------------------------
          State         Occupied      ->      Virtual          Excitation
          number         orbital              orbital          energy (eV)
 -------------------------------------------------------------------------------
             1               20                   21              5.59966
             2               19                   21              5.65449
             3               18                   21              5.66783
             4               20                   22              6.82760
             5               19                   22              6.88243
             6               18                   22              6.89577
             7               20                   23              7.73646
             8               19                   23              7.79129
             9               18                   23              7.80463
            10               17                   21              8.98999

      Number of active states:                                       3800
 -------------------------------------------------------------------------------
 
 -------------------------------------------------------------------------------
 -                      TDDFPT WAVEFUNCTION OPTIMIZATION                       -
 -------------------------------------------------------------------------------

          Step            Time         Convergence           Conv. states
 -------------------------------------------------------------------------------

    State    Exc. energy (eV)      Convergence (eV)
        1       2.2949687            -3.3047E+00
        2       3.5755664            -2.0789E+00
        3       3.7972098            -1.8706E+00
        4       4.3334979            -2.4941E+00
        5       4.7624162            -2.1200E+00
        6       4.9327724            -1.9630E+00
        7       5.3325376            -2.4039E+00
        8       5.7527095            -2.0386E+00
        9       5.8091664            -1.9955E+00
       10       7.3206957            -1.6693E+00
 
             1           173.6          1.2145E-01                      0

    State    Exc. energy (eV)      Convergence (eV)
        1       2.0920412            -2.0293E-01
        2       3.3709312            -2.0464E-01
        3       3.7545153            -4.2694E-02
        4       4.1088888            -2.2461E-01
        5       4.7092053            -5.3211E-02
        6       4.8914411            -4.1331E-02
        7       5.2069263            -1.2561E-01
        8       5.6565147            -9.6195E-02
        9       5.6871715            -1.2199E-01
       10       7.1389547            -1.8174E-01
 
             2           178.7          8.2542E-03                      0

    State    Exc. energy (eV)      Convergence (eV)
        1       2.0905662            -1.4750E-03
        2       3.3674302            -3.5010E-03
        3       3.7540284            -4.8687E-04
        4       4.1078799            -1.0088E-03
        5       4.7086091            -5.9621E-04
        6       4.8909022            -5.3880E-04
        7       5.2060865            -8.3987E-04
        8       5.6532569            -3.2578E-03
        9       5.6819105            -5.2610E-03
       10       7.1205549            -1.8400E-02
 
             3           181.3          6.7618E-04                      0

    State    Exc. energy (eV)      Convergence (eV)
        1       2.0905447            -2.1540E-05
        2       3.3674021            -2.8094E-05
        3       3.7540252            -3.2186E-06
        4       4.1078614            -1.8553E-05
        5       4.7085999            -9.2000E-06
        6       4.8908922            -1.0061E-05
        7       5.2060641            -2.2360E-05
        8       5.6531853            -7.1557E-05
        9       5.6817494            -1.6111E-04
       10       7.1198899            -6.6491E-04
 
             4           181.2          2.4435E-05                      0

    State    Exc. energy (eV)      Convergence (eV)
        1       2.0905445            -1.8354E-07
        2       3.3674017            -3.4887E-07
        3       3.7540252            -3.2437E-08
        4       4.1078611            -2.4384E-07
        5       4.7085997            -1.7947E-07
        6       4.8908921            -1.1676E-07
        7       5.2060637            -4.4132E-07
        8       5.6531838            -1.5441E-06
        9       5.6817463            -3.1247E-06
       10       7.1198431            -4.6874E-05
 
             5           186.9          1.7226E-06                      5

    State    Exc. energy (eV)      Convergence (eV)
        1       2.0905445            -8.3258E-10
        2       3.3674017            -3.6929E-09
        3       3.7540252            -3.7652E-10
        4       4.1078611            -1.5272E-09
        5       4.7085997            -2.8061E-09
        6       4.8908921            -1.5102E-09
        7       5.2060636            -2.3529E-09
        8       5.6531838            -3.6685E-08
        9       5.6817462            -7.3545E-08
       10       7.1198418            -1.2306E-06
 
             6           137.2          4.5223E-08                      9
 ------------------------- Restart Davidson iterations -------------------------

    State    Exc. energy (eV)      Convergence (eV)
        1       2.0905445             4.1540E-15
        2       3.3674017            -2.2658E-15
        3       3.7540252            -8.3079E-15
        4       4.1078611            -1.5861E-14
        5       4.7085997            -1.2840E-14
        6       4.8908921            -1.2084E-14
        7       5.2060636            -9.8185E-15
        8       5.6531838            -6.0421E-15
        9       5.6817462            -4.5316E-15
       10       7.1198418             6.0421E-15
 
             7           136.5          5.8287E-16                     10
 
 -------------------------------------------------------------------------------
 -  TDDFPT run converged in 7 iteration(s) 
 -------------------------------------------------------------------------------

 R-TDDFPT states of multiplicity 3
 Transition dipoles calculated using velocity formulation

         State    Excitation        Transition dipole (a.u.)        Oscillator
         number   energy (eV)       x           y           z     strength (a.u.)
         ------------------------------------------------------------------------
 TDDFPT|      1       2.09054   0.0000E+00  0.0000E+00  0.0000E+00   0.00000E+00
 TDDFPT|      2       3.36740   0.0000E+00  0.0000E+00  0.0000E+00   0.00000E+00
 TDDFPT|      3       3.75403   0.0000E+00  0.0000E+00  0.0000E+00   0.00000E+00
 TDDFPT|      4       4.10786   0.0000E+00  0.0000E+00  0.0000E+00   0.00000E+00
 TDDFPT|      5       4.70860   0.0000E+00  0.0000E+00  0.0000E+00   0.00000E+00
 TDDFPT|      6       4.89089   0.0000E+00  0.0000E+00  0.0000E+00   0.00000E+00
 TDDFPT|      7       5.20606   0.0000E+00  0.0000E+00  0.0000E+00   0.00000E+00
 TDDFPT|      8       5.65318   0.0000E+00  0.0000E+00  0.0000E+00   0.00000E+00
 TDDFPT|      9       5.68175   0.0000E+00  0.0000E+00  0.0000E+00   0.00000E+00
 TDDFPT|     10       7.11984   0.0000E+00  0.0000E+00  0.0000E+00   0.00000E+00

 TDDFPT : CheckSum  =  0.563122E+00
 
 -------------------------------------------------------------------------------
 -                            Excitation analysis                              -
 -------------------------------------------------------------------------------
        State             Occupied              Virtual             Excitation
        number             orbital              orbital             amplitude
 -------------------------------------------------------------------------------
             1   2.09054 eV
                                20                   21              -0.986509
                                12                   21               0.073921
                                17                   21               0.067466
                                20                   39              -0.052657
                                19                   23              -0.051831
             2   3.36740 eV
                                19                   21              -0.970494
                                16                   21               0.193588
                                20                   23              -0.111361
                                20                   29              -0.051609
             3   3.75403 eV
                                18                   21              -0.997463
             4   4.10786 eV
                                18                   22               0.940465
                                19                   23               0.300487
                                16                   29              -0.105652
                                18                   42              -0.055857
             5   4.70860 eV
                                19                   22               0.979267
                                18                   23               0.191332
             6   4.89089 eV
                                20                   22              -0.997320
             7   5.20606 eV
                                19                   23               0.941944
                                18                   22              -0.314801
                                16                   29              -0.064075
                                19                   43               0.057464
             8   5.65318 eV
                                20                   23              -0.974047
                                20                   29              -0.144375
                                19                   21               0.136265
                                16                   21               0.067164
             9   5.68175 eV
                                18                   23               0.974125
                                19                   22              -0.193452
                                16                   22               0.093772
            10   7.11984 eV
                                17                   21               0.958224
                                14                   21              -0.214856
                                12                   21               0.132873
                                10                   21              -0.079398
                                20                   21               0.069443
 -------------------------------------------------------------------------------
 
 -------------------------------------------------------------------------------
 -                            Natural Orbital analysis                         -
 -------------------------------------------------------------------------------
   STATE NR.      1             2.09054 eV
     Particle-Hole state: 1   Spin:1     Eigenvalue: 0.99337   Sum Eigv: 0.99337
   STATE NR.      2             3.36740 eV
     Particle-Hole state: 1   Spin:1     Eigenvalue: 0.98206   Sum Eigv: 0.98206
   STATE NR.      3             3.75403 eV
     Particle-Hole state: 1   Spin:1     Eigenvalue: 0.99610   Sum Eigv: 0.99610
   STATE NR.      4             4.10786 eV
     Particle-Hole state: 1   Spin:1     Eigenvalue: 0.88844   Sum Eigv: 0.88844
     Particle-Hole state: 2   Spin:1     Eigenvalue: 0.09507   Sum Eigv: 0.98351
   STATE NR.      5             4.70860 eV
     Particle-Hole state: 1   Spin:1     Eigenvalue: 0.96099   Sum Eigv: 0.96099
     Particle-Hole state: 2   Spin:1     Eigenvalue: 0.03733   Sum Eigv: 0.99832
   STATE NR.      6             4.89089 eV
     Particle-Hole state: 1   Spin:1     Eigenvalue: 0.99636   Sum Eigv: 0.99636
   STATE NR.      7             5.20606 eV
     Particle-Hole state: 1   Spin:1     Eigenvalue: 0.89210   Sum Eigv: 0.89210
     Particle-Hole state: 2   Spin:1     Eigenvalue: 0.09987   Sum Eigv: 0.99197
   STATE NR.      8             5.65318 eV
     Particle-Hole state: 1   Spin:1     Eigenvalue: 0.97287   Sum Eigv: 0.97287
     Particle-Hole state: 2   Spin:1     Eigenvalue: 0.02315   Sum Eigv: 0.99602
   STATE NR.      9             5.68175 eV
     Particle-Hole state: 1   Spin:1     Eigenvalue: 0.95119   Sum Eigv: 0.95119
     Particle-Hole state: 2   Spin:1     Eigenvalue: 0.04665   Sum Eigv: 0.99783
   STATE NR.     10             7.11984 eV
     Particle-Hole state: 1   Spin:1     Eigenvalue: 0.99485   Sum Eigv: 0.99485
 -------------------------------------------------------------------------------
 
                       triplet excitations finished                             
                                                                                
 -------------------------------------------------------------------------------
 -                      TDDFPT SINGLET ENERGIES                                -
 -------------------------------------------------------------------------------
 
 -------------------------------------------------------------------------------
 -                            TDDFPT Initial Guess                             -
 -------------------------------------------------------------------------------
          State         Occupied      ->      Virtual          Excitation
          number         orbital              orbital          energy (eV)
 -------------------------------------------------------------------------------
             1               20                   21              5.59966
             2               19                   21              5.65449
             3               18                   21              5.66783
             4               20                   22              6.82760
             5               19                   22              6.88243
             6               18                   22              6.89577
             7               20                   23              7.73646
             8               19                   23              7.79129
             9               18                   23              7.80463
            10               17                   21              8.98999

      Number of active states:                                       3800
 -------------------------------------------------------------------------------
 
 -------------------------------------------------------------------------------
 -                      TDDFPT WAVEFUNCTION OPTIMIZATION                       -
 -------------------------------------------------------------------------------

          Step            Time         Convergence           Conv. states
 -------------------------------------------------------------------------------

    State    Exc. energy (eV)      Convergence (eV)
        1       3.9900380            -1.6096E+00
        2       4.0589514            -1.5955E+00
        3       5.1447237            -5.2310E-01
        4       5.8205730            -1.0070E+00
        5       5.8363926            -1.0460E+00
        6       6.1375209            -7.5825E-01
        7       7.4562163            -2.8024E-01
        8       7.7380978            -5.3192E-02
        9       9.5210086             1.7164E+00
       10      11.6413589             2.6514E+00
 
             1           176.3          9.7436E-02                      0

    State    Exc. energy (eV)      Convergence (eV)
        1       3.9226120            -6.7426E-02
        2       4.0385690            -2.0382E-02
        3       5.0708071            -7.3917E-02
        4       5.1200634            -7.0051E-01
        5       5.7237701            -1.1262E-01
        6       6.0733104            -6.4210E-02
        7       6.6410287            -8.1519E-01
        8       7.4365451            -3.0155E-01
        9       8.3690224            -1.1520E+00
       10       8.8943725            -2.7470E+00
 
             2           180.6          1.0095E-01                      0

    State    Exc. energy (eV)      Convergence (eV)
        1       3.9203939            -2.2181E-03
        2       4.0383048            -2.6424E-04
        3       5.0496382            -2.1169E-02
        4       5.1191858            -8.7754E-04
        5       5.7131202            -1.0650E-02
        6       6.0718755            -1.4349E-03
        7       6.6330343            -7.9944E-03
        8       7.2641188            -1.7243E-01
        9       7.4176886            -9.5133E-01
       10       7.6093257            -1.2850E+00
 
             3           184.6          4.7225E-02                      0

    State    Exc. energy (eV)      Convergence (eV)
        1       3.9203612            -3.2612E-05
        2       4.0383019            -2.9297E-06
        3       5.0493778            -2.6047E-04
        4       5.1191628            -2.3022E-05
        5       5.7126968            -4.2338E-04
        6       6.0718340            -4.1508E-05
        7       6.6329207            -1.1356E-04
        8       7.2388465            -2.5272E-02
        9       7.3198861            -9.7803E-02
       10       7.4171070            -1.9222E-01
 
             4           189.8          7.0639E-03                      0

    State    Exc. energy (eV)      Convergence (eV)
        1       3.9203607            -5.7580E-07
        2       4.0383018            -6.0704E-08
        3       5.0493755            -2.2439E-06
        4       5.1191617            -1.1213E-06
        5       5.7126927            -4.0896E-06
        6       6.0718323            -1.7088E-06
        7       6.6329191            -1.6563E-06
        8       7.2367557            -2.0909E-03
        9       7.3127515            -7.1346E-03
       10       7.4170942            -1.2791E-05
 
             5           191.6          2.6219E-04                      1

    State    Exc. energy (eV)      Convergence (eV)
        1       3.9203607            -5.4406E-09
        2       4.0383018            -1.0193E-09
        3       5.0493755            -2.0088E-08
        4       5.1191617            -2.8769E-08
        5       5.7126927            -6.3818E-08
        6       6.0718323            -1.7635E-08
        7       6.6329191            -1.8252E-08
        8       7.2366875            -6.8199E-05
        9       7.3125915            -1.5997E-04
       10       7.4170939            -3.7898E-07
 
             6           141.2          5.8790E-06                      7
 ------------------------- Restart Davidson iterations -------------------------

    State    Exc. energy (eV)      Convergence (eV)
        1       3.9203607            -1.8126E-14
        2       4.0383018            -8.3079E-15
        3       5.0493755            -9.8185E-15
        4       5.1191617            -1.3595E-14
        5       5.7126927            -9.8185E-15
        6       6.0718323            -4.5316E-15
        7       6.6329191            -1.8126E-14
        8       7.2366875            -7.5527E-15
        9       7.3125915             4.5316E-15
       10       7.4170939            -1.5105E-15
 
             7           141.7          6.6613E-16                     10
 
 -------------------------------------------------------------------------------
 -  TDDFPT run converged in 7 iteration(s) 
 -------------------------------------------------------------------------------

 R-TDDFPT states of multiplicity 1
 Transition dipoles calculated using velocity formulation

         State    Excitation        Transition dipole (a.u.)        Oscillator
         number   energy (eV)       x           y           z     strength (a.u.)
         ------------------------------------------------------------------------
 TDDFPT|      1       3.92036  -4.7468E-08 -3.3127E-07 -5.8624E-08   1.10867E-14
 TDDFPT|      2       4.03830   8.1539E-09  8.3996E-02  7.7788E-08   6.98022E-04
 TDDFPT|      3       5.04938   2.4464E-01  4.2480E-08 -4.9980E-08   7.40398E-03
 TDDFPT|      4       5.11916   1.3544E-07 -1.3293E-01 -4.4991E-08   2.21600E-03
 TDDFPT|      5       5.71269   1.7769E-07 -2.1166E-09  1.9157E-01   5.13642E-03
 TDDFPT|      6       6.07183  -8.0815E-09  1.0912E-08 -1.0444E-08   4.36541E-17
 TDDFPT|      7       6.63292  -5.3647E-01  8.7974E-09 -2.4855E-07   4.67686E-02
 TDDFPT|      8       7.23669   2.9573E-07 -2.1453E-08  4.8174E-01   4.11449E-02
 TDDFPT|      9       7.31259   2.1163E-07 -1.4616E-08  1.6263E-07   1.28003E-14
 TDDFPT|     10       7.41709  -5.0613E-01 -5.1556E-09  1.0697E-06   4.65501E-02

 TDDFPT : CheckSum  =  0.695071E+00
 
 -------------------------------------------------------------------------------
 -                            Excitation analysis                              -
 -------------------------------------------------------------------------------
        State             Occupied              Virtual             Excitation
        number             orbital              orbital             amplitude
 -------------------------------------------------------------------------------
             1   3.92036 eV
                                19                   21              -0.990765
                                16                   21               0.105222
                                20                   23               0.069225
             2   4.03830 eV
                                18                   21               0.998188
             3   5.04938 eV
                                20                   21               0.876992
                                19                   23              -0.402448
                                16                   23               0.122439
                                19                   29              -0.121235
                                18                   22               0.092001
                                17                   21               0.082273
                                12                   21               0.071881
                                16                   29               0.060449
                                 9                   21              -0.052846
             4   5.11916 eV
                                20                   22              -0.997941
             5   5.71269 eV
                                19                   22              -0.836442
                                18                   23               0.535879
                                15                   21               0.081641
             6   6.07183 eV
                                20                   23              -0.990732
                                19                   21              -0.077153
                                20                   29              -0.070952
                                16                   21              -0.057874
             7   6.63292 eV
                                18                   22               0.864704
                                19                   23               0.440566
                                14                   21               0.112239
                                20                   21               0.106778
             8   7.23669 eV
                                18                   23              -0.672096
                                15                   21               0.621792
                                19                   22              -0.361540
                                16                   22               0.074480
                                20                   24              -0.052300
             9   7.31259 eV
                                16                   21              -0.990622
                                19                   21              -0.102170
                                20                   23               0.068421
            10   7.41709 eV
                                17                   21              -0.868502
                                19                   23              -0.369411
                                18                   22               0.203673
                                14                   21               0.193597
                                20                   21              -0.106241
                                12                   21              -0.087834
 -------------------------------------------------------------------------------
 
 -------------------------------------------------------------------------------
 -                            Natural Orbital analysis                         -
 -------------------------------------------------------------------------------
   STATE NR.      1             3.92036 eV
     Particle-Hole state: 1   Spin:1     Eigenvalue: 0.99360   Sum Eigv: 0.99360
   STATE NR.      2             4.03830 eV
     Particle-Hole state: 1   Spin:1     Eigenvalue: 0.99708   Sum Eigv: 0.99708
   STATE NR.      3             5.04938 eV
     Particle-Hole state: 1   Spin:1     Eigenvalue: 0.78828   Sum Eigv: 0.78828
     Particle-Hole state: 2   Spin:1     Eigenvalue: 0.19678   Sum Eigv: 0.98505
   STATE NR.      4             5.11916 eV
     Particle-Hole state: 1   Spin:1     Eigenvalue: 0.99714   Sum Eigv: 0.99714
   STATE NR.      5             5.71269 eV
     Particle-Hole state: 1   Spin:1     Eigenvalue: 0.70011   Sum Eigv: 0.70011
     Particle-Hole state: 2   Spin:1     Eigenvalue: 0.28781   Sum Eigv: 0.98791
   STATE NR.      6             6.07183 eV
     Particle-Hole state: 1   Spin:1     Eigenvalue: 0.98859   Sum Eigv: 0.98859
   STATE NR.      7             6.63292 eV
     Particle-Hole state: 1   Spin:1     Eigenvalue: 0.74995   Sum Eigv: 0.74995
     Particle-Hole state: 2   Spin:1     Eigenvalue: 0.19607   Sum Eigv: 0.94602
[...]
 flops     6 x    32 x     6               552960       0.0%    100.0%      0.0%
 flops    31 x    30 x     6               803520       0.0%    100.0%      0.0%
 flops     6 x    30 x    31               803520       0.0%    100.0%      0.0%
 flops    62 x    20 x    31              1845120       0.0%    100.0%      0.0%
 flops    37 x    20 x    31              2202240       0.0%    100.0%      0.0%
 flops     6 x     6 x    20              4060800       0.0%    100.0%      0.0%
 flops    31 x    32 x     6              4285440       0.0%    100.0%      0.0%
 flops     6 x    32 x    31              4285440       0.0%    100.0%      0.0%
 flops    31 x    30 x    31              6227280       0.0%    100.0%      0.0%
 flops     6 x    20 x     6             23886720       0.0%    100.0%      0.0%
 flops    31 x     6 x    20             25176960       0.0%    100.0%      0.0%
 flops     6 x    31 x    20             25176960       0.0%    100.0%      0.0%
 flops    31 x    32 x    31             33212160       0.0%    100.0%      0.0%
 flops    20 x    20 x     6             38496000       0.0%    100.0%      0.0%
 flops    31 x    20 x     6            182190720       0.0%    100.0%      0.0%
 flops     6 x    20 x    31            182309760       0.0%    100.0%      0.0%
 flops    31 x    31 x    20            227641680       0.0%    100.0%      0.0%
 flops    20 x    20 x    31            298344000       0.0%    100.0%      0.0%
 flops    31 x    20 x    31           1426508400       0.0%    100.0%      0.0%
 flops inhomo. stacks                           0       0.0%      0.0%      0.0%
 flops total                         2.489660E+09       0.0%    100.0%      0.0%
 flops max/rank                    474.590560E+06       0.0%    100.0%      0.0%
 matmuls inhomo. stacks                         0       0.0%      0.0%      0.0%
 matmuls total                             140213       0.0%    100.0%      0.0%
 number of processed stacks                129561       0.0%    100.0%      0.0%
 average stack size                                     0.0       1.1       0.0
 marketing flops                     2.801430E+09
 -------------------------------------------------------------------------------
 # multiplications                           1224
 max memory usage/rank               1.251676E+09
 # max total images/rank                        2
 # max 3D layers                                1
 # MPI messages exchanged                 4543488
 MPI messages size (bytes):
  total size                         5.394532E+09
  min size                           0.000000E+00
  max size                          15.376000E+03
  average size                       1.187311E+03
 MPI breakdown and total messages size (bytes):
             size <=      128             3430714                        0
       128 < size <=     8192              861854               2583998000
      8192 < size <=    32768              250920               2810534400
     32768 < size <=   131072                   0                        0
    131072 < size <=  4194304                   0                        0
   4194304 < size <= 16777216                   0                        0
  16777216 < size                               0                        0
 -------------------------------------------------------------------------------

 *** WARNING in dbcsr_mm.F:291 :: Using a non-square number of MPI ranks ***
 *** might lead to poor performance. Used ranks: 128 Suggested: 121 256  ***

 -------------------------------------------------------------------------------
 -                                                                             -
 -                      DBCSR MESSAGE PASSING PERFORMANCE                      -
 -                                                                             -
 -------------------------------------------------------------------------------
 ROUTINE             CALLS      AVE VOLUME [Bytes]
 MP_Bcast               28                     12.
 MP_Allreduce         4671                      8.
 MP_Alltoall         26675                  39448.
 MP_ISend            76342                   1808.
 MP_IRecv            75808                   1594.
 -------------------------------------------------------------------------------

 -------------------------------------------------------------------------------
 -                                                                             -
 -                                DBM STATISTICS                               -
 -                                                                             -
 -------------------------------------------------------------------------------
    M  x    N  x    K                                          COUNT     PERCENT
 -------------------------------------------------------------------------------

 -------------------------------------------------------------------------------
 -                                                                             -
 -                                GRID STATISTICS                              -
 -                                                                             -
 -------------------------------------------------------------------------------
 LP    KERNEL             BACKEND                              COUNT     PERCENT
 1     collocate ortho    CPU                                 173376      12.95%
 1     integrate ortho    CPU                                 169764      12.68%
 2     collocate ortho    CPU                                 138528      10.34%
 2     integrate ortho    CPU                                 135642      10.13%
 0     collocate ortho    CPU                                 122112       9.12%
 0     integrate ortho    CPU                                 119568       8.93%
 2     collocate general  CPU                                  93440       6.98%
 3     collocate ortho    CPU                                  93312       6.97%
 3     integrate ortho    CPU                                  91368       6.82%
 2     integrate general  CPU                                  90880       6.79%
 4     collocate ortho    CPU                                  39744       2.97%
 4     integrate ortho    CPU                                  38916       2.91%
 5     collocate ortho    CPU                                  12096       0.90%
 5     integrate ortho    CPU                                  11844       0.88%
 6     collocate ortho    CPU                                   3024       0.23%
 6     integrate ortho    CPU                                   2961       0.22%
 0     collocate general  CPU                                   1280       0.10%
 0     integrate general  CPU                                   1280       0.10%
 -------------------------------------------------------------------------------

 MEMORY| Estimated peak process memory [MiB]                                1194

 -------------------------------------------------------------------------------
 ----                             MULTIGRID INFO                            ----
 -------------------------------------------------------------------------------
 count for grid        1:         297460          cutoff [a.u.]          600.00
 count for grid        2:          50588          cutoff [a.u.]          200.00
 count for grid        3:          76669          cutoff [a.u.]           66.67
 count for grid        4:          27519          cutoff [a.u.]           22.22
 count for grid        5:           1920          cutoff [a.u.]            7.41
 total gridlevel count  :         454156

 -------------------------------------------------------------------------------
 -                                                                             -
 -                         MESSAGE PASSING PERFORMANCE                         -
 -                                                                             -
 -------------------------------------------------------------------------------

 ROUTINE             CALLS      AVE VOLUME [Bytes]
 MP_Group                6
 MP_Bcast             3458                 983699.
 MP_Allreduce         9480                  14595.
 MP_Sync              2041
 MP_Alltoall          4083                2621898.
 MP_SendRecv         54864                  11184.
 MP_ISendRecv       125349                  13552.
 MP_Wait            156506
 MP_comm_split          58
 MP_ISend            34070                 225220.
 MP_IRecv            36682                 209215.
 -------------------------------------------------------------------------------


 -------------------------------------------------------------------------------
 -                                                                             -
 -                           R E F E R E N C E S                               -
 -                                                                             -
 -------------------------------------------------------------------------------
 
 CP2K version 2023.2 (Development Version), the CP2K developers group (2023).
 CP2K is freely available from https://www.cp2k.org/ .

 Kuehne,Thomas D.; Iannuzzi,Marcella; Del Ben,Mauro;
 Rybkin,Vladimir V.; Seewald,Patrick; Stein,Frederick; Laino,Teodoro;
 Khaliullin,Rustam Z.; Schuett,Ole; Schiffmann,Florian; Golze,Dorothea;
 Wilhelm,Jan; Chulkov,Sergey; Bani-Hashemian,Mohammad Hossein;
 Weber,Valery; Borstnik,Urban; Taillefumier,Mathieu;
 Jakobovits,Alice Shoshana; Lazzaro,Alfio; Pabst,Hans; Mueller,Tiziano;
 Schade,Robert; Guidon,Manuel; Andermatt,Samuel; Holmberg,Nico;
 Schenter,Gregory K.; Hehn,Anna; Bussy,Augustin; Belleflamme,Fabian;
 Tabacchi,Gloria; Gloess,Andreas; Lass,Michael; Bethune,Iain;
 Mundy,Christopher J.; Plessl,Christian; Watkins,Matt;
 VandeVondele,Joost; Krack,Matthias; Hutter,Juerg. 
 The Journal of Chemical Physics, 152 (19), (2020). 
 CP2K: An electronic structure and molecular dynamics software package -
 Quickstep: Efficient and accurate electronic structure calculations.
 https://doi.org/10.1063/5.0007045

 Schuett, Ole; Messmer, Peter; Hutter, Juerg; VandeVondele, Joost. 
 Electronic Structure Calculations on Graphics Processing Units, John
 Wiley & Sons, Ltd, 173-190 (2016). 
 GPU-Accelerated Sparse Matrix-Matrix Multiplication for
 Linear Scaling Density Functional Theory.
 https://doi.org/10.1002/9781118670712.ch8

 Heinecke, A; Henry, G; Hutchinson, M; Pabst, H. 
 Proceedings of Intl. Supercomputing Conference, 981-991 (2016). 
 LIBXSMM: Accelerating Small Matrix Multiplications
 by Runtime Code Generation.
 https://doi.org/10.1109/SC.2016.83

 Borstnik, U; VandeVondele, J; Weber, V; Hutter, J. 
 PARALLEL COMPUTING, 40 (5-6), 47-58 (2014). 
 Sparse matrix multiplication: The distributed block-compressed sparse
 row library.
 https://doi.org/10.1016/j.parco.2014.03.012

 Hutter, J; Iannuzzi, M; Schiffmann, F; VandeVondele, J. 
 WIREs Comput Mol Sci., 4 (1), 15-25 (2014). 
 CP2K: atomistic simulations of condensed matter systems.
 https://doi.org/10.1002/wcms.1159

 Guidon, M; Hutter, J; VandeVondele, J. 
 JOURNAL OF CHEMICAL THEORY AND COMPUTATION, 5 (11), 3010-3021 (2009). 
 Robust Periodic Hartree-Fock Exchange for Large-Scale Simulations Using
 Gaussian Basis Sets.
 https://doi.org/10.1021/ct900494g

 Guidon, M; Schiffmann, F; Hutter, J; VandeVondele, J. 
 JOURNAL OF CHEMICAL PHYSICS, 128 (21), 214104 (2008). 
 Ab initio molecular dynamics using hybrid density functionals.
 https://doi.org/10.1063/1.2931945

 Frigo, M; Johnson, SG. 
 PROCEEDINGS OF THE IEEE, 93 (2), 216-231 (2005). 
 The design and implementation of FFTW3.
 https://doi.org/10.1109/JPROC.2004.840301

 Iannuzzi, M; Chassaing, T; Wallman, T; Hutter, J. 
 CHIMIA, 59 (7-8), 499-503 (2005). 
 Ground and excited state density functional calculations with the
 Gaussian and augmented-plane-wave method.
 https://doi.org/10.2533/000942905777676164

 VandeVondele, J; Hutter, J. 
 JOURNAL OF CHEMICAL PHYSICS, 118 (10), 4365-4369 (2003). 
 An efficient orbital transformation method for electronic structure
 calculations.
 https://doi.org/10.1063/1.1543154

 Martin,Richard L.. 
 The Journal of Chemical Physics, 118 (11), 4775-4777 (2003). 
 Natural transition orbitals.
 https://doi.org/10.1063/1.1558471

 Lippert, G; Hutter, J; Parrinello, M. 
 THEORETICAL CHEMISTRY ACCOUNTS, 103 (2), 124-140 (1999). 
 The Gaussian and augmented-plane-wave density functional method for ab
 initio molecular dynamics simulations.
 https://doi.org/10.1007/s002140050523

 Krack, M; Parrinello, M. 
 PHYSICAL CHEMISTRY CHEMICAL PHYSICS, 2 (10), 2105-2112 (2000). 
 All-electron ab-initio molecular dynamics.
 https://doi.org/10.1039/b001167n

 Martyna, GJ; Tuckerman, ME. 
 JOURNAL OF CHEMICAL PHYSICS, 110 (6), 2810-2821 (1999). 
 A reciprocal space based method for treating long range interactions in
 ab initio and force-field-based calculations in clusters.
 https://doi.org/10.1063/1.477923

 Perdew, JP; Burke, K; Ernzerhof, M. 
 PHYSICAL REVIEW LETTERS, 77 (18), 3865-3868 (1996). 
 Generalized gradient approximation made simple.
 https://doi.org/10.1103/PhysRevLett.77.3865


 -------------------------------------------------------------------------------
 -                                                                             -
 -                                T I M I N G                                  -
 -                                                                             -
 -------------------------------------------------------------------------------
 SUBROUTINE                       CALLS  ASD         SELF TIME        TOTAL TIME
                                MAXIMUM       AVERAGE  MAXIMUM  AVERAGE  MAXIMUM
 CP2K                                 1  1.0    0.050    0.088 2720.013 2720.018
 qs_energies                          1  2.0    0.000    0.013 2718.322 2718.344
 qs_energies_properties               1  3.0    0.000    0.007 2663.868 2663.891
 tddfpt                               1  4.0    0.001    0.011 2663.868 2663.891
 tddfpt_soc_energies                  1  5.0    0.000    0.011 2654.964 2654.986
 tddfpt_energies                      2  6.0    0.000    0.011 2604.202 2604.211
 tddfpt_davidson_solver               4  7.0    0.003    0.024 2441.886 2441.927
 tddfpt_compute_Aop_evects           14  8.0    0.000    0.011 1954.014 1954.095
 cp_dbcsr_sm_fm_multiply            880  9.5    0.012    0.032 1199.424 1205.058
 fhxc_kernel                         14  9.0    0.004    0.004 1125.927 1126.044
 dbcsr_multiply_generic            1224 11.3    0.084    0.140  792.141  804.525
 tddfpt_apply_hfx                    14  9.0    0.002    0.003  625.206  625.293
 dbcsr_complete_redistribute       2801 11.5    0.101    0.317  586.212  609.078
 cp_dbcsr_sm_fm_multiply_core       880 10.5    0.002    0.002  523.169  532.960
 multiply_cannon                   1224 12.3    3.281    3.745  486.816  499.946
 multiply_cannon_loop              1224 13.3    0.649    0.846  431.748  445.627
 copy_dbcsr_to_fm                   924 10.4    0.008    0.048  434.110  443.061
 copy_fm_to_dbcsr                  1873 10.6    0.005    0.016  374.075  398.914
 pw_transfer                       3138 12.5    0.096    0.146  379.187  381.284
 fft_wrap_pw1pw2                   2923 13.6    0.009    0.022  378.847  380.899
 fft3d_ps                          2923 15.6    8.170    9.144  376.353  378.611
 multiply_cannon_multrec          19584 14.3  340.991  377.340  340.997  377.343
 tddfpt_orthonormalize_psi1_psi      16  7.9    0.009    0.080  371.044  373.809
 mp_alltoall_i22                   3725 12.5  272.243  298.078  272.243  298.078
 cp_dbcsr_plus_fm_fm_t_native       141 10.0    0.002    0.009  278.719  281.005
 mp_alltoall_d11v                 11460 12.8  248.181  274.250  248.181  274.250
 mp_waitall_1                    267442 14.5  225.198  265.875  225.198  265.875
 qs_rho_update_rho_low              144  9.9    0.005    0.020  256.364  258.470
 dbcsr_desymmetrize_deep            924 11.4    0.013    0.048  222.033  232.024
 mp_alltoall_z22v                  2923 17.6  224.386  228.847  224.386  228.847
 calculate_rho_elec                 144 10.9    0.036    0.080  224.475  226.650
 fft_wrap_pw1pw2_600               1782 14.6    1.166    1.353  205.029  206.825
 tddfpt_apply_energy_diff            14  9.0    0.001    0.001  202.881  202.953
 density_rs2pw                      144 11.9    0.006    0.028  191.554  193.438
 integrate_v_rspace                 141 10.0    0.003    0.017  188.835  190.816
 mp_sum_l                          4706 11.3  178.327  182.063  178.327  182.063
 potential_pw2rs                    141 11.0    0.006    0.019  180.308  180.813
 cp_fm_trace_a1b1t1_aa             3880  9.0    8.281   11.587  164.852  166.926
 mp_sum_dv                         4178 10.0  158.074  162.951  158.074  162.951
 mp_alltoall_i11v                  9327 12.5  158.360  162.360  158.360  162.360
 integrate_four_center              281 11.0    5.551   11.769  145.813  147.912
 tddft_hfx_matrix                   280 10.0    0.009    0.020  142.970  145.045
 tddfpt_apply_xc_analytic           140 10.0    0.084    0.125  140.525  140.931
 tddfpt_compute_residual_vects       10  8.0    0.000    0.001  133.613  133.889
 xc_pw_derive                      1065 11.8    0.005    0.006  121.490  122.829
 make_m2s                          2448 12.3    0.021    0.047  101.910  114.025
 make_images                       2448 13.3    6.901    7.547  100.549  111.507
 x_to_yz                            998 16.2    3.208    3.638  109.236  110.375
 mp_alltoall_z11v                   855 17.5  103.099  104.463  103.099  104.463
 multiply_cannon_metrocomm3       19584 14.3    0.031    0.060   73.982  104.258
 mp_cart_sub                       1858 12.4   93.503   97.899   93.503   97.899
 make_images_sizes                 2448 14.3    0.004    0.024   88.251   91.299
 mp_alltoall_i44                   2448 15.3   88.247   91.297   88.247   91.297
 yz_to_x                            785 17.2    0.205    0.267   87.633   89.742
 transfer_pw2rs                     777 12.0    0.004    0.026   82.780   83.606
 transfer_rs2pw                     794 12.8    0.005    0.025   81.550   83.383
 mp_sync                           2041 14.0   73.088   80.042   73.088   80.042
 mp_waitany                       23510 14.3   72.971   76.384   72.971   76.384
 tddfpt_print_nto_analysis            2  7.0    0.002    0.012   72.120   72.473
 xc_calc_2nd_deriv_analytical       420 11.1    2.874    3.555   70.948   71.350
 xz_to_yz                           576 16.9    1.515    1.724   69.960   70.776
 yz_to_xz                           564 16.0    1.457    1.756   68.429   69.633
 xc_pw_divergence                   141 12.0    0.002    0.014   67.734   68.828
 integrate_four_center_getP         281 12.0    0.050    0.099   63.894   65.329
 mp_cart_create                     933 12.4   60.465   64.542   60.465   64.542
 hybrid_alltoall_any               3372 14.5    0.025    0.164   57.835   64.000
 cp_fm_write_unformatted             21  8.0   58.549   59.023   58.549   59.023
 mp_allgather_i34                  1224 13.3   50.348   57.653   50.348   57.653
 -------------------------------------------------------------------------------

 The number of warnings for this run is : 3
 
 -------------------------------------------------------------------------------
  **** **** ******  **  PROGRAM ENDED AT                 2023-12-06 14:52:43.387
 ***** ** ***  *** **   PROGRAM RAN ON                               nesh-srp138
 **    ****   ******    PROGRAM RAN BY                                  suphc355
 ***** **    ** ** **   PROGRAM PROCESS ID                               1984029
  **** **  *******  **  PROGRAM STOPPED IN /gxfs_work/cau/suphc355/benchmark_pbe
                                           0/pbe0_bm_ae/o_aren
