 operating system is UNIX !
 hostname is         elgar

 dscf (elgar) : TURBOMOLE V7.0( 19819 ) 16 Jun 2015 at 11:29:46
 Copyright (C) 2015 TURBOMOLE GmbH, Karlsruhe


    2024-02-13 10:04:52.884 



                             d s c f - program

                   idea & directorship : reinhart ahlrichs
                   program development : marco haeser
                                         michael baer
                           dft version : oliver treutler


                          quantum chemistry group
                          universitaet  karlsruhe
                                  germany




                          References             
                                                 
          TURBOMOLE:                             
              R. Ahlrichs, M. Baer, M. Haeser, H. Horn, and
              C. Koelmel
              Electronic structure calculations on workstation
              computers: the program system TURBOMOLE
              Chem. Phys. Lett. 162: 165 (1989)
          Density Functional:                              
              O. Treutler and R. Ahlrichs                      
              Efficient Molecular Numerical Integration Schemes
              J. Chem. Phys. 102: 346 (1995)                   
          Parallel Version:                                
              Performance of parallel TURBOMOLE for Density    
              Functional Calculations                          
              M. v. Arnim and R. Ahlrichs                      
              J. Comp. Chem. 19: 1746 (1998)                   
                                         




              +--------------------------------------------------+
              | Atomic coordinate, charge and isotop information |
              +--------------------------------------------------+

                    atomic coordinates            atom    charge  isotop
         -1.34851448    0.00000000   -0.36723389    c      6.000     0
          1.34851448    0.00000000   -0.36723389    c      6.000     0
         -2.65971822    0.00000000    1.96258750    c      6.000     0
         -1.33705869    0.00000000    4.19230117    c      6.000     0
          1.33705869    0.00000000    4.19230117    c      6.000     0
          2.65971822    0.00000000    1.96258750    c      6.000     0
          2.67165471    0.00000000   -2.57471220    n      7.000     0
         -2.67165471    0.00000000   -2.57471220    n      7.000     0
         -1.33982622    0.00000000   -4.66308312    c      6.000     0
          1.33982622    0.00000000   -4.66308312    c      6.000     0
         -2.36641046    0.00000000   -6.44056555    h      1.000     0
          2.36641046    0.00000000   -6.44056555    h      1.000     0
         -4.70524645    0.00000000    1.91415746    h      1.000     0
         -2.34078894    0.00000000    5.97654862    h      1.000     0
          2.34078894    0.00000000    5.97654862    h      1.000     0
          4.70524645    0.00000000    1.91415746    h      1.000     0
 
       center of nuclear mass  :    0.00000000    0.00000000   -0.32414992
       center of nuclear charge:    0.00000000    0.00000000   -0.28898279

              +--------------------------------------------------+
              |               basis set information              |
              +--------------------------------------------------+

              we will work with the 1s 3p 5d 7f 9g ... basis set
              ...i.e. with spherical basis functions...

   type   atoms  prim   cont   basis
   ---------------------------------------------------------------------------
    c        8     46     31   def2-TZVP   [5s3p2d1f|11s6p2d1f]
    n        2     46     31   def2-TZVP   [5s3p2d1f|11s6p2d1f]
    h        6      8      6   def2-TZVP   [3s1p|5s1p]
   ---------------------------------------------------------------------------
   total:   16    508    346
   ---------------------------------------------------------------------------

   total number of primitive shells          :   46
   total number of contracted shells         :  134
   total number of cartesian basis functions :  396
   total number of SCF-basis functions       :  346


 integral neglect threshold       :  0.84E-10
 integral storage threshold THIZE :  0.10E-04
 integral storage threshold THIME :         5


 DENSITY CONVERGENCE CHECK SWITCHED ON !
 SCF CONVERGENCE IF RMS(delta[D]) <     0.1000000000E-06


 symmetry group of the molecule :   c2v

 the group has the following generators :
   c2(z)
   mirror plane sigma(xz)

    4 symmetry operations found

 there are 4 real representations :   a1   a2   b1   b2  

 maximum number of shells which are related by symmetry :  2


    mo occupation :
   irrep   mo's   occupied
    a1     120       16
    a2      53        2
    b1     120       13
    b2      53        3
 
 number of basis functions   :          346
 number of occupied orbitals :           34
 
  
           ------------------
           density functional
           ------------------
 PBE0 hybrid functional
 exchange:    3/4 (LDA+PBE) + 1/4 HF
 correlation: LDA (PW) + PBE
 spherical integration : Lebedev's spherical grid
 spherical gridsize    :           6
    i.e. gridpoints    :         974
 value for diffuse not defined
 radial integration    : Chebyshev 2nd kind (scaling 3)
 radial gridsize       :          10
 integration cells     :           8
 partition function    : becke
 partition sharpness   :           3
  

          ------------------------
          nuclear repulsion energy  :   467.118040041    
          ------------------------

 
          -----------------
          -S,T+V- integrals
          -----------------

 1e-integrals will be neglected if expon. factor < 0.843930E-11
 
   Difference densities algorithm switched on.
   The maximal number of linear combinations of
   difference densities is          20 .

 automatic virtual orbital shift switched on 
      shift if e(lumo)-e(homo) < 0.10000000    


 DIIS switched on: error vector is FDS-SDF
 Max. Iterations for DIIS is     :   4
 DIIS matrix (see manual) 
    Scaling factor of diagonals  :  1.200
    threshold for scaling factor :  0.000

 scf convergence criterion : increment of total energy < .1000000D-05
                  and increment of one-electron energy < .1000000D-02


 <geterg> : there is no data group $energy 

  MOs are in ASCII format !


 reading orbital data $scfmo  from file mos . 

 orbital characterization : scfconv=7
 

 DSCF restart information will be dumped onto file mos

          Overall gridpoints after grid construction =        138352
 
                                              current damping :  0.700
 ITERATION  ENERGY          1e-ENERGY        2e-ENERGY     RMS[dD(SAO)]   TOL
   1  -417.57606215009    -1488.2635040     603.56940178    0.000D+00 0.842D-10
                            Exc =   -44.761242390199     N = 67.999999918    
          max. resid. norm for Fia-block=  6.837D-02 for orbital      1b1        
          max. resid. fock norm         =  1.341D-01 for orbital    120b1        
          Delta Eig. =    20.3573853790 eV 
 
                                              current damping :  0.650
 ITERATION  ENERGY          1e-ENERGY        2e-ENERGY     RMS[dD(SAO)]   TOL
   2  -417.61112223307    -1489.5386521     604.80948986    0.479D-02 0.527D-10
                            Exc =   -44.818608628240     N = 67.999999917    
          Norm of current diis error: 0.41137    
          max. resid. norm for Fia-block=  3.204D-02 for orbital      1b1        
          max. resid. fock norm         =  5.173D-02 for orbital    120b1        
          Delta Eig. =     8.4317363879 eV 
 
                                              current damping :  0.600
 ITERATION  ENERGY          1e-ENERGY        2e-ENERGY     RMS[dD(SAO)]   TOL
   3  -417.61898750338    -1489.3389350     604.60190750    0.429D-02 0.368D-10
                            Exc =   -44.802863504580     N = 67.999999915    
          Norm of current diis error: 0.18606    
          max. resid. norm for Fia-block=  1.342D-02 for orbital      1b1        
          max. resid. fock norm         =  2.020D-02 for orbital    120b1        
          Delta Eig. =     3.3703885038 eV 
 
                                              current damping :  0.650
 ITERATION  ENERGY          1e-ENERGY        2e-ENERGY     RMS[dD(SAO)]   TOL
   4  -417.62082406835    -1489.5968593     604.85799518    0.230D-02 0.318D-10
                            Exc =   -44.808724504677     N = 67.999999914    
          Norm of current diis error: 0.74349E-01
          max. resid. norm for Fia-block=  4.965D-03 for orbital      1a2        
          max. resid. fock norm         =  8.638D-03 for orbital    120b1        
          Delta Eig. =     1.2923137423 eV 
 
                                              current damping :  0.500
 ITERATION  ENERGY          1e-ENERGY        2e-ENERGY     RMS[dD(SAO)]   TOL
   5  -417.62111316119    -1489.5994998     604.86034657    0.799D-03 0.301D-10
                            Exc =   -44.809923484207     N = 67.999999914    
          Norm of current diis error: 0.32353E-01
          max. resid. norm for Fia-block=  2.104D-03 for orbital      1b1        
          max. resid. fock norm         =  2.969D-03 for orbital    119b1        
 mo-orthogonalization: Cholesky decomposition
          Delta Eig. =     0.5786913051 eV 
 
                                              current damping :  0.350
 ITERATION  ENERGY          1e-ENERGY        2e-ENERGY     RMS[dD(SAO)]   TOL
   6  -417.62117271663    -1489.6044903     604.86527755    0.594D-03 0.290D-10
                            Exc =   -44.808758047557     N = 67.999999914    
          Norm of current diis error: 0.11789E-01
          max. resid. norm for Fia-block=  8.156D-04 for orbital      1a2        
          max. resid. fock norm         =  1.185D-03 for orbital    120b1        
          Delta Eig. =     0.2149519559 eV 
 
                                              current damping :  0.200
 ITERATION  ENERGY          1e-ENERGY        2e-ENERGY     RMS[dD(SAO)]   TOL
   7  -417.62118084105    -1489.6215909     604.88236998    0.150D-03 0.286D-10
                            Exc =   -44.809529325401     N = 67.999999914    
          Norm of current diis error: 0.40857E-02
          max. resid. norm for Fia-block=  2.523D-04 for orbital      3b2        
          max. resid. fock norm         =  3.496D-04 for orbital    117a1        
          Delta Eig. =     0.0612790109 eV 
 
                                              current damping :  0.250
 ITERATION  ENERGY          1e-ENERGY        2e-ENERGY     RMS[dD(SAO)]   TOL
   8  -417.62118162288    -1489.6160039     604.87678219    0.690D-04 0.283D-10
                            Exc =   -44.809315805887     N = 67.999999914    
          Norm of current diis error: 0.24824E-02
          max. resid. norm for Fia-block=  9.336D-05 for orbital      1a2        
          max. resid. fock norm         =  1.547D-04 for orbital      9a1        
          Delta Eig. =     0.0140074263 eV 
 
                                              current damping :  0.300
 ITERATION  ENERGY          1e-ENERGY        2e-ENERGY     RMS[dD(SAO)]   TOL
   9  -417.62118190809    -1489.6181141     604.87889210    0.195D-04 0.281D-10
                            Exc =   -44.809291028965     N = 67.999999914    
          Norm of current diis error: 0.46182E-03
          max. resid. norm for Fia-block=  2.261D-05 for orbital      3b2        
          max. resid. fock norm         =  3.969D-05 for orbital    118a1        
          Delta Eig. =     0.0030766626 eV 
 
                                              current damping :  0.150
 ITERATION  ENERGY          1e-ENERGY        2e-ENERGY     RMS[dD(SAO)]   TOL
  10  -417.62118191563    -1489.6186793     604.87945731    0.192D-05 0.281D-10
                            Exc =   -44.809341788040     N = 67.999999914    
          Norm of current diis error: 0.18332E-03
          max. resid. norm for Fia-block=  9.360D-06 for orbital      2a2        
          max. resid. fock norm         =  2.124D-05 for orbital    118a1        
 mo-orthogonalization: Cholesky decomposition
          Delta Eig. =     0.0007738297 eV 

 ENERGY & DENSITY CONVERGED !

 
                                              current damping :  0.050
 ITERATION  ENERGY          1e-ENERGY        2e-ENERGY     RMS[dD(SAO)]   TOL
  11  -417.62118191351    -1489.6187163     604.87949435    0.140D-05 0.279D-10
                            Exc =   -44.809343885331     N = 67.999999914    
          max. resid. norm for Fia-block=  7.005D-06 for orbital     13b1        
          max. resid. fock norm         =  1.496D-05 for orbital    118a1        

 convergence criteria satisfied after 11 iterations


                  ------------------------------------------ 
                 |  total energy      =   -417.62118191351  |
                  ------------------------------------------ 
                 :  kinetic energy    =    415.56971590521  :
                 :  potential energy  =   -833.19089781872  :
                 :  virial theorem    =      1.99508773478  :
                 :  wavefunction norm =      1.00000000000  :
                  .......................................... 


 <geterg> : there is no data group $energy 


 orbitals $scfmo  will be written to file mos

    irrep                 12a1        13a1        14a1        15a1        16a1  
 eigenvalues H         -0.53160    -0.48992    -0.45474    -0.38424    -0.26622
            eV         -14.4657    -13.3316    -12.3743    -10.4559     -7.2444
 occupation              2.0000      2.0000      2.0000      2.0000      2.0000 

    irrep                 17a1        18a1        19a1        20a1        21a1  
 eigenvalues H          0.05848     0.07557     0.09671     0.11625     0.15698
            eV           1.5913      2.0563      2.6317      3.1634      4.2716

    irrep                  1a2         2a2         3a2         4a2         5a2  
 eigenvalues H         -0.36252    -0.26509    -0.03119     0.07355     0.17528
            eV          -9.8647     -7.2135     -0.8486      2.0013      4.7696
 occupation              2.0000      2.0000 

    irrep                  6a2         7a2         8a2         9a2        10a2  
 eigenvalues H          0.25434     0.29278     0.36614     0.44480     0.57682
            eV           6.9210      7.9671      9.9632     12.1037     15.6963

    irrep                  9b1        10b1        11b1        12b1        13b1  
 eigenvalues H         -0.56253    -0.46380    -0.44658    -0.38356    -0.33129
            eV         -15.3072    -12.6208    -12.1522    -10.4373     -9.0149
 occupation              2.0000      2.0000      2.0000      2.0000      2.0000 

    irrep                 14b1        15b1        16b1        17b1        18b1  
 eigenvalues H          0.08910     0.10928     0.11969     0.18499     0.20399
            eV           2.4246      2.9736      3.2569      5.0338      5.5509

    irrep                  1b2         2b2         3b2         4b2         5b2  
 eigenvalues H         -0.45789    -0.37488    -0.27827    -0.07784     0.00021
            eV         -12.4598    -10.2010     -7.5721     -2.1182      0.0057
 occupation              2.0000      2.0000      2.0000 

    irrep                  6b2         7b2         8b2         9b2        10b2  
 eigenvalues H          0.20153     0.22783     0.28755     0.33773     0.44293
            eV           5.4841      6.1996      7.8248      9.1902     12.0528
 
 
 
 
 ==============================================================================
                           electrostatic moments
 ==============================================================================

 reference point for electrostatic moments:    0.00000   0.00000   0.00000

 
              nuc           elec       ->  total
 ------------------------------------------------------------------------------
                          charge      
 ------------------------------------------------------------------------------
          68.000000     -68.000000      -0.000000
 
 ------------------------------------------------------------------------------
                       dipole moment  
 ------------------------------------------------------------------------------
   x       0.000000       0.000000       0.000000
   y       0.000000       0.000000       0.000000
   z     -19.650830      19.853246       0.202417
 
   | dipole moment | =     0.2024 a.u. =     0.5145 debye 
 
 ------------------------------------------------------------------------------
                     quadrupole moment
 ------------------------------------------------------------------------------
  xx     316.070846    -360.364974     -44.294128
  yy       0.000000     -44.642373     -44.642373
  zz     774.212159    -807.503453     -33.291294
  xy       0.000000       0.000000       0.000000
  xz      -0.000000      -0.000000      -0.000000
  yz       0.000000       0.000000       0.000000
 
     1/3  trace=     -40.742598
     anisotropy=      11.181025
 
 ==============================================================================
 
 


    ------------------------------------------------------------------------
         total  cpu-time :  3 minutes and 20 seconds
         total wall-time :  3 minutes and 21 seconds
    ------------------------------------------------------------------------


   ****  dscf : all done  ****


    2024-02-13 10:08:13.392 

