 operating system is UNIX !
 hostname is         elgar

 escf (elgar) : TURBOMOLE V7.0( 19819 ) 16 Jun 2015 at 11:29:46
 Copyright (C) 2015 TURBOMOLE GmbH, Karlsruhe


    2024-02-13 10:11:20.507 




                                e s c f

                       quantum chemistry group
                       university of karlsruhe
                               germany


          integral direct evaluation of 

                    * excitation energies and transition moments 
                    * dynamic response properties 
                    * stabilities



          references (see also programs dscf and ridft) 

          implementation and benchmarks (review) 
          F. Furche and D. Rappoport,  
          "Density functional methods for excited states: 
          equilibrium structure and electronic spectra",
          ch. III of "Computational Photochemistry", ed. by 
          M. Olivucci, vol. 16 of "Theoretical and Computational 
          Chemistry", Elsevier, Amsterdam, 2005.

          two-component TDDFT with spin-orbit coupling 
          M. Kuehn and F. Weigend, 
          J. Chem. Theory Comput. 9 (2013), 5341.

          GW quasi particle energies
          M. J. van Setten, F. Weigend, and F. Evers,
          J. Chem. Theory Comput. 9 (2013), 232.

          Current-density dependent meta-GGA Linear Response
          J. E. Bates and F. Furche, 
          J. Chem. Phys. 137 (2012), 164105.

          spin-flip method 
          M. Kuehn and F. Weigend, 
          Chem. Phys. Chem. 12 (2011), 3331.

          RI-J method 
          R. Bauernschmitt, M. Haeser, O. Treutler, and R. Ahlrichs,
          Chem. Phys. Lett. 264 (1997), 573.

          density functional implementation               
          R. Bauernschmitt and R. Ahlrichs,
          Chem. Phys. Lett. 256 (1996), 454.
          R. Bauernschmitt and R. Ahlrichs,
          J. Chem. Phys. 104 (1996), 9047.

          UHF extension (RPA and CIS)
          C. Ochsenfeld, J. Gauss, and R. Ahlrichs, 
          J. Chem. Phys. 103 (1995), 7401.

          integral direct algorithm                 
          H. Weiss, R. Ahlrichs, and M. Haeser, 
          J. Chem. Phys. 99 (1993), 1262.
                                     




              +--------------------------------------------------+
              | Atomic coordinate, charge and isotop information |
              +--------------------------------------------------+

                    atomic coordinates            atom    charge  isotop
         -1.34851448    0.00000000   -0.36723389    c      6.000     0
          1.34851448    0.00000000   -0.36723389    c      6.000     0
         -2.65971822    0.00000000    1.96258750    c      6.000     0
         -1.33705869    0.00000000    4.19230117    c      6.000     0
          1.33705869    0.00000000    4.19230117    c      6.000     0
          2.65971822    0.00000000    1.96258750    c      6.000     0
          2.67165471    0.00000000   -2.57471220    n      7.000     0
         -2.67165471    0.00000000   -2.57471220    n      7.000     0
         -1.33982622    0.00000000   -4.66308312    c      6.000     0
          1.33982622    0.00000000   -4.66308312    c      6.000     0
         -2.36641046    0.00000000   -6.44056555    h      1.000     0
          2.36641046    0.00000000   -6.44056555    h      1.000     0
         -4.70524645    0.00000000    1.91415746    h      1.000     0
         -2.34078894    0.00000000    5.97654862    h      1.000     0
          2.34078894    0.00000000    5.97654862    h      1.000     0
          4.70524645    0.00000000    1.91415746    h      1.000     0
 
       center of nuclear mass  :    0.00000000    0.00000000   -0.32414992
       center of nuclear charge:    0.00000000    0.00000000   -0.28898279

              +--------------------------------------------------+
              |               basis set information              |
              +--------------------------------------------------+

              we will work with the 1s 3p 5d 7f 9g ... basis set
              ...i.e. with spherical basis functions...

   type   atoms  prim   cont   basis
   ---------------------------------------------------------------------------
    c        8     46     31   def2-TZVP   [5s3p2d1f|11s6p2d1f]
    n        2     46     31   def2-TZVP   [5s3p2d1f|11s6p2d1f]
    h        6      8      6   def2-TZVP   [3s1p|5s1p]
   ---------------------------------------------------------------------------
   total:   16    508    346
   ---------------------------------------------------------------------------

   total number of primitive shells          :   46
   total number of contracted shells         :  134
   total number of cartesian basis functions :  396
   total number of SCF-basis functions       :  346


 residuum convergence criterium   :  0.10E-04


 integral neglect threshold       :  0.84E-11
 integral storage threshold THIZE :  0.10E-04
 integral storage threshold THIME :         5

 CI SINGLES TRIPLET-CALCULATION (TAMM-DANCOFF-APPROXIMATION)
 
             FOUND DFT-FLAG !
 

 symmetry group of the molecule :   c2v

 the group has the following generators :
   c2(z)
   mirror plane sigma(xz)

    4 symmetry operations found

 there are 4 real representations :   a1   a2   b1   b2  

 maximum number of shells which are related by symmetry :  2

 IRREPs of excited states :   a1   a2   b1   b2  
 

 determining totally symmetric integral contributions 
    - equivalent to irreducible tensor elements - 
 which can be formed within each triple of representations :

             representation triple      contributions

              a1    a1    a1              1
              a1    a2    a2              1
              a1    b1    b1              1
              a1    b2    b2              1
              a2    a1    a2              1
              a2    a2    a1              1
              a2    b1    b2              1
              a2    b2    b1              1
              b1    a1    b1              1
              b1    a2    b2              1
              b1    b1    a1              1
              b1    b2    a2              1
              b2    a1    b2              1
              b2    a2    b1              1
              b2    b1    a2              1
              b2    b2    a1              1

    mo occupation :
   irrep   mo's   occupied
    a1     120       16
    a2      53        2
    b1     120       13
    b2      53        3
 
 number of basis functions   :          346
 number of occupied orbitals :           34
 
  
           ------------------
           density functional
           ------------------
 PBE0 hybrid functional
 exchange:    3/4 (LDA+PBE) + 1/4 HF
 correlation: LDA (PW) + PBE
 spherical integration : Lebedev's spherical grid
 spherical gridsize    :           6
    i.e. gridpoints    :         974
 value for diffuse not defined
 radial integration    : Chebyshev 2nd kind (scaling 3)
 radial gridsize       :          10
 integration cells     :           8
 partition function    : becke
 partition sharpness   :           3
  

 biggest AO integral is expected to be     6.862573055
  MOs are in ASCII format !


 reading orbital data $scfmo  from file mos . 

 orbital characterization : scfconv=6
 
 preparing numerical integration ....
          Overall gridpoints after grid construction =        138352

 Calculating ground state density on molecular grid

 Integral of ground state density: N =   67.99999991408259    


 all orbitals will be included in the transformation

 number of non-frozen orbitals          :   346
 number of non-frozen occupied orbitals :    34



 dimension of super-tensorspace: 1

          IRREP   tensor space dimension   number of roots

           a1             3307                  10
           a2             1995                  10
           b1             3317                  10
           b2             1989                  10

 maximum number of Davidson iterations set to   25


 machine precision: 2.22D-16


 logfile cist_a1   will be constructed

 logfile cist_a2   will be constructed

 logfile cist_b1   will be constructed

 logfile cist_b2   will be constructed


                       Block Davidson iteration


 total number of roots to be determined:  40


 maximum core memory set to   500 MB,
 corresponding to      412 vectors in CAO basis


 maximum number of simultaneously treated vectors (including degeneracy):       72


 Iteration IRREP Converged      Max. Euclidean
                 roots          residual norm

    1       a1       0        4.807547654421586D-02
            a2       0        5.724824221109076D-02
            b1       0        6.366708599334804D-02
            b2       0        5.354033482448603D-02
 
    2       a1       0        6.579007483917302D-03
            a2       0        6.801962114244707D-03
            b1       0        1.881260370243221D-02
            b2       0        1.004715148315335D-02
 
    3       a1       0        7.815640636614108D-04
            a2       0        2.013708035701947D-03
            b1       0        1.876774340198831D-03
            b2       0        1.177697765786762D-02
 
    4       a1       0        1.262810097398773D-04
            a2       0        4.394231521749291D-04
            b1       0        4.046685537325040D-04
            b2       0        2.321653471458019D-03
 
    5       a1       8        1.488214708852348D-05
            a2       5        4.793817906527409D-05
            b1       5        6.738536748402411D-05
            b2       4        3.327132072676390D-04
 
    6       a1      10        9.202447069809046D-06
            a2      10        8.318166461511642D-06
            b1      10        9.871040069298178D-06
            b2       9        4.739265105064252D-05
 
    7       a1      10        9.202447069809046D-06
            a2      10        8.318166461511642D-06
            b1      10        9.871040069298178D-06
            b2      10        5.968916256597811D-06
 

 converged!

 Eigenpairs written on logfile cist_a1  

 Eigenpairs written on logfile cist_a2  

 Eigenpairs written on logfile cist_b1  

 Eigenpairs written on logfile cist_b2  



 IRREP   Vector     Eigenvalue           Euclidean residual norm

  a1        1    1.329606017819228D-01    2.190557561571231D-06
            2    1.685391984673916D-01    3.452301622975655D-06
            3    2.009359673628935D-01    5.016183214135831D-06
            4    2.273098491232277D-01    4.400885311610295D-06
            5    2.601301254570313D-01    5.532358051460260D-06
            6    2.768462164282449D-01    1.429169518289644D-06
            7    2.861499172234463D-01    8.918412222108783D-06
            8    2.883147532036756D-01    8.862148377987874D-06
            9    2.955449312143568D-01    9.202447069809046D-06
           10    3.081298077707970D-01    1.778806471469842D-06

  a2        1    1.638039602294383D-01    2.425727457375905D-06
            2    1.752019633661376D-01    1.702977936685380D-06
            3    2.431270560770875D-01    4.575260784988324D-06
            4    2.719175063788778D-01    8.084928179191932D-06
            5    2.759998423312005D-01    8.318166461511642D-06
            6    2.813461943816785D-01    1.823414999938403D-06
            7    2.946676651054514D-01    3.079627729157047D-06
            8    2.988022923806318D-01    5.229751761549586D-06
            9    3.059990756632032D-01    2.208561006446999D-06
           10    3.145086498250761D-01    3.431745128207583D-06

  b1        1    1.129890402545305D-01    2.182616912214360D-06
            2    1.661154090386937D-01    3.740580558577957D-06
            3    1.734750487161603D-01    3.383981862187225D-06
            4    2.128250927935784D-01    3.090594504803886D-06
            5    2.544682798145799D-01    1.341234862428258D-06
            6    2.978053002338503D-01    9.871040069298178D-06
            7    3.018553075720332D-01    9.856828393377026D-07
            8    3.150441160358280D-01    2.488623323345792D-06
            9    3.275178891626643D-01    4.510651644248796D-06
           10    3.354570676615292D-01    9.259536804338635D-06

  b2        1    1.087479716263592D-01    1.314485531308811D-06
            2    2.070403617979211D-01    3.910371096146177D-06
            3    2.417218669399668D-01    4.951228854598606D-06
            4    2.500819576044942D-01    5.968916256597811D-06
            5    2.865470803115697D-01    2.862600561455527D-06
            6    2.922789753333235D-01    1.405135122390578D-06
            7    3.051805478954907D-01    4.005976696996414D-06
            8    3.076407409928770D-01    4.367434444395070D-06
            9    3.107754806098481D-01    2.208062338072362D-06
           10    3.201188639172631D-01    5.215168983883806D-06
 




                    Selection rules for point group c2v 


 Subduction with respect to c2v :

    Polar vector representation: a1, b1, b2                  

    Axial vector representation: a2, b1, b2                  

    Symmetric second rank tensor representation: a1, a2, b1, b2              




                            Ground state


 Total energy:                           -417.6211819135000    

 Charge:

               elec          nuc         total

           -68.000000    68.000000     0.000000


 Electric dipole moment:

               elec          nuc         total   

    x        0.000000     0.000000     0.000000    Norm:              0.202417
    y        0.000000     0.000000     0.000000
    z       19.853246   -19.650830     0.202417    Norm / debye:      0.514496


 Electric quadrupole moment:

               elec          nuc         total   

   xx     -360.364974   316.070846   -44.294128
   yy      -44.642373     0.000000   -44.642373    1/3*trace:       -40.742598
   zz     -807.503453   774.212159   -33.291294
   xy        0.000000     0.000000     0.000000
   xz        0.000000    -0.000000    -0.000000    Anisotropy:       11.181025
   yz        0.000000     0.000000     0.000000



 ==============================================================================

                              I R R E P   a1  

 ==============================================================================


 Excitation is electric dipole allowed

 Excitation is magnetic dipole forbidden

 Excitation is electric quadrupole allowed




                         1 triplet a1 excitation


 Total energy:                           -417.4882213117181    

 Excitation energy:                      0.1329606017819228    

 Excitation energy / eV:                  3.618043610089510    

 Excitation energy / nm:                  342.6831110070588    

 Excitation energy / cm^(-1):             29181.47897373727    


 Oscillator strength:

    velocity representation:              1.340854417567515    

    length representation:                1.062936922248420    

    mixed representation:                 1.193835695475894    


 Rotatory strength:

    velocity representation:              0.000000000000000    

    velocity rep. / 10^(-40)erg*cm^3:     0.000000000000000    

    length representation:                0.000000000000000    

    length rep. / 10^(-40)erg*cm^3:       0.000000000000000    


 Dominant contributions:

    occ. orbital  energy / eV   virt. orbital  energy / eV   |coeff.|^2*100
       3 b2         -7.57           4 b2         -2.12           97.1
 

 S^2 expectation value:                     2.00000000


 Change of electron number:

            -0.000000


 Electric transition dipole moment (velocity rep.):

    x        0.000000        Norm:                  3.889331
    y        0.000000
    z        3.889331        Norm / debye:          9.885769


 Electric transition dipole moment (length rep.):

    x        0.000000        Norm:                  3.462884
    y        0.000000
    z        3.462884        Norm / debye:          8.801839


 Magnetic transition dipole moment / i:

    x        0.000000        Norm:                  0.000000
    y        0.000000
    z        0.000000        Norm / Bohr mag.:      0.000000


 Electric quadrupole transition moment:

   xx       -0.163394
   yy       -0.090234        1/3*trace:            -1.550745
   zz       -4.398607
   xy        0.000000
   xz        0.000000        Anisotropy:            4.272263
   yz        0.000000




                         2 triplet a1 excitation


 Total energy:                           -417.4526427150326    

 Excitation energy:                      0.1685391984673916    

 Excitation energy / eV:                  4.586186899670449    

 Excitation energy / nm:                  270.3427634302856    

 Excitation energy / cm^(-1):             36990.07834210477    


 Oscillator strength:

    velocity representation:             0.7976825619714620    

    length representation:               0.6618686546703519    

    mixed representation:                0.7266093063992858    


 Rotatory strength:

    velocity representation:              0.000000000000000    

    velocity rep. / 10^(-40)erg*cm^3:     0.000000000000000    

    length representation:                0.000000000000000    

    length rep. / 10^(-40)erg*cm^3:       0.000000000000000    


 Dominant contributions:

    occ. orbital  energy / eV   virt. orbital  energy / eV   |coeff.|^2*100
       2 a2         -7.21           3 a2         -0.85           94.4
 

 S^2 expectation value:                     2.00000000


 Change of electron number:

             0.000000


 Electric transition dipole moment (velocity rep.):

    x        0.000000        Norm:                  2.664466
    y        0.000000
    z       -2.664466        Norm / debye:          6.772449


 Electric transition dipole moment (length rep.):

    x        0.000000        Norm:                  2.427063
    y        0.000000
    z       -2.427063        Norm / debye:          6.169026


 Magnetic transition dipole moment / i:

    x        0.000000        Norm:                  0.000000
    y        0.000000
    z        0.000000        Norm / Bohr mag.:      0.000000


 Electric quadrupole transition moment:

   xx        0.227746
   yy       -0.107652        1/3*trace:            -1.758981
   zz       -5.397037
   xy        0.000000
   xz        0.000000        Anisotropy:            5.464809
   yz        0.000000




                         3 triplet a1 excitation


 Total energy:                           -417.4202459461371    

 Excitation energy:                      0.2009359673628935    

 Excitation energy / eV:                  5.467748212713887    

 Excitation energy / nm:                  226.7555841693183    

 Excitation energy / cm^(-1):             44100.34723131832    


 Oscillator strength:

    velocity representation:             0.2200651178998261E-02

    length representation:               0.1341335476854000E-02

    mixed representation:                0.1718083670422064E-02


 Rotatory strength:

    velocity representation:              0.000000000000000    

    velocity rep. / 10^(-40)erg*cm^3:     0.000000000000000    

    length representation:                0.000000000000000    

    length rep. / 10^(-40)erg*cm^3:       0.000000000000000    


 Dominant contributions:

    occ. orbital  energy / eV   virt. orbital  energy / eV   |coeff.|^2*100
       3 b2         -7.57           5 b2          0.01           61.0
       2 b2        -10.20           4 b2         -2.12           28.2
       2 a2         -7.21           4 a2          2.00            3.9
 

 S^2 expectation value:                     2.00000000


 Change of electron number:

            -0.000000


 Electric transition dipole moment (velocity rep.):

    x        0.000000        Norm:                  0.128172
    y        0.000000
    z        0.128172        Norm / debye:          0.325783


 Electric transition dipole moment (length rep.):

    x        0.000000        Norm:                  0.100066
    y        0.000000
    z        0.100066        Norm / debye:          0.254344


 Magnetic transition dipole moment / i:

    x        0.000000        Norm:                  0.000000
    y        0.000000
    z        0.000000        Norm / Bohr mag.:      0.000000


 Electric quadrupole transition moment:

   xx       -2.669785
   yy        0.384903        1/3*trace:             4.249622
   zz       15.033746
   xy        0.000000
   xz        0.000000        Anisotropy:           16.391076
   yz        0.000000




                         4 triplet a1 excitation


 Total energy:                           -417.3938720643768    

 Excitation energy:                      0.2273098491232277    

 Excitation energy / eV:                  6.185418357835075    

 Excitation energy / nm:                  200.4460116257413    

 Excitation energy / cm^(-1):             49888.74519079311    


 Oscillator strength:

    velocity representation:             0.3532396605561679E-01

    length representation:               0.3023074340512055E-01

    mixed representation:                0.3267827648268096E-01


 Rotatory strength:

    velocity representation:              0.000000000000000    

    velocity rep. / 10^(-40)erg*cm^3:     0.000000000000000    

    length representation:                0.000000000000000    

    length rep. / 10^(-40)erg*cm^3:       0.000000000000000    


 Dominant contributions:

    occ. orbital  energy / eV   virt. orbital  energy / eV   |coeff.|^2*100
       2 b2        -10.20           4 b2         -2.12           45.0
       3 b2         -7.57           5 b2          0.01           35.8
       2 a2         -7.21           4 a2          2.00           10.8
 

 S^2 expectation value:                     2.00000000


 Change of electron number:

             0.000000


 Electric transition dipole moment (velocity rep.):

    x        0.000000        Norm:                  0.482804
    y        0.000000
    z       -0.482804        Norm / debye:          1.227176


 Electric transition dipole moment (length rep.):

    x        0.000000        Norm:                  0.446643
    y        0.000000
    z       -0.446643        Norm / debye:          1.135263


 Magnetic transition dipole moment / i:

    x        0.000000        Norm:                  0.000000
    y        0.000000
    z        0.000000        Norm / Bohr mag.:      0.000000


 Electric quadrupole transition moment:

   xx       -4.472109
   yy        0.180396        1/3*trace:             0.937335
   zz        7.103717
   xy        0.000000
   xz        0.000000        Anisotropy:           10.089052
   yz        0.000000




                         5 triplet a1 excitation


 Total energy:                           -417.3610517880430    

 Excitation energy:                      0.2601301254570313    

 Excitation energy / eV:                  7.078503899563080    

 Excitation energy / nm:                  175.1560015586362    

 Excitation energy / cm^(-1):             57091.96321862662    


 Oscillator strength:

    velocity representation:             0.1061497717853693    

    length representation:               0.8887973358960950E-01

    mixed representation:                0.9713168091246786E-01


 Rotatory strength:

    velocity representation:              0.000000000000000    

    velocity rep. / 10^(-40)erg*cm^3:     0.000000000000000    

    length representation:                0.000000000000000    

    length rep. / 10^(-40)erg*cm^3:       0.000000000000000    


 Dominant contributions:

    occ. orbital  energy / eV   virt. orbital  energy / eV   |coeff.|^2*100
       1 a2         -9.86           3 a2         -0.85           80.1
       2 b2        -10.20           4 b2         -2.12            9.2
       2 a2         -7.21           4 a2          2.00            6.8
 

 S^2 expectation value:                     2.00000000


 Change of electron number:

            -0.000000


 Electric transition dipole moment (velocity rep.):

    x        0.000000        Norm:                  0.782366
    y        0.000000
    z       -0.782366        Norm / debye:          1.988590


 Electric transition dipole moment (length rep.):

    x        0.000000        Norm:                  0.715899
    y        0.000000
    z       -0.715899        Norm / debye:          1.819647


 Magnetic transition dipole moment / i:

    x        0.000000        Norm:                  0.000000
    y        0.000000
    z        0.000000        Norm / Bohr mag.:      0.000000


 Electric quadrupole transition moment:

   xx        0.569040
   yy        0.146953        1/3*trace:             2.499046
   zz        6.781145
   xy        0.000000
   xz        0.000000        Anisotropy:            6.433541
   yz        0.000000




                         6 triplet a1 excitation


 Total energy:                           -417.3443356970718    

 Excitation energy:                      0.2768462164282449    

 Excitation energy / eV:                  7.533372073394535    

 Excitation energy / nm:                  164.5800085254532    

 Excitation energy / cm^(-1):             60760.72111128133    


 Oscillator strength:

    velocity representation:             0.2152528603439850E-01

    length representation:               0.3933432090571141E-02

    mixed representation:                0.9201535243991943E-02


 Rotatory strength:

    velocity representation:              0.000000000000000    

    velocity rep. / 10^(-40)erg*cm^3:     0.000000000000000    

    length representation:                0.000000000000000    

    length rep. / 10^(-40)erg*cm^3:       0.000000000000000    


 Dominant contributions:

    occ. orbital  energy / eV   virt. orbital  energy / eV   |coeff.|^2*100
       2 a2         -7.21           4 a2          2.00           31.7
       2 b2        -10.20           5 b2          0.01           25.7
       1 b2        -12.46           4 b2         -2.12           25.7
       2 a2         -7.21           5 a2          4.77            5.0
       2 b2        -10.20           4 b2         -2.12            4.5
 

 S^2 expectation value:                     2.00000000


 Change of electron number:

             0.000000


 Electric transition dipole moment (velocity rep.):

    x        0.000000        Norm:                  0.341508
    y        0.000000
    z        0.341508        Norm / debye:          0.868033


 Electric transition dipole moment (length rep.):

    x        0.000000        Norm:                  0.145986
    y        0.000000
    z        0.145986        Norm / debye:          0.371063


 Magnetic transition dipole moment / i:

    x        0.000000        Norm:                  0.000000
    y        0.000000
    z        0.000000        Norm / Bohr mag.:      0.000000


 Electric quadrupole transition moment:

   xx       -1.191033
   yy       -0.391847        1/3*trace:            -0.007716
   zz        1.559733
   xy        0.000000
   xz        0.000000        Anisotropy:            2.450926
   yz        0.000000




                         7 triplet a1 excitation


 Total energy:                           -417.3350319962765    

 Excitation energy:                      0.2861499172234463    

 Excitation energy / eV:                  7.786538761579905    

 Excitation energy / nm:                  159.2289562831531    

 Excitation energy / cm^(-1):             62802.64740745146    


 Oscillator strength:

    velocity representation:             0.1851526663766402    

    length representation:               0.1613820066719563    

    mixed representation:                0.1728592168226081    


 Rotatory strength:

    velocity representation:              0.000000000000000    

    velocity rep. / 10^(-40)erg*cm^3:     0.000000000000000    

    length representation:                0.000000000000000    

    length rep. / 10^(-40)erg*cm^3:       0.000000000000000    


 Dominant contributions:

    occ. orbital  energy / eV   virt. orbital  energy / eV   |coeff.|^2*100
      16 a1         -7.24          17 a1          1.59           54.2
      16 a1         -7.24          18 a1          2.06           42.7
 

 S^2 expectation value:                     2.00000000


 Change of electron number:

             0.000000


 Electric transition dipole moment (velocity rep.):

    x        0.000000        Norm:                  0.985176
    y        0.000000
    z        0.985176        Norm / debye:          2.504086


 Electric transition dipole moment (length rep.):

    x        0.000000        Norm:                  0.919764
    y        0.000000
    z        0.919764        Norm / debye:          2.337824


 Magnetic transition dipole moment / i:

    x        0.000000        Norm:                  0.000000
    y        0.000000
    z        0.000000        Norm / Bohr mag.:      0.000000


 Electric quadrupole transition moment:

   xx        2.917070
   yy        0.155339        1/3*trace:            -2.069683
   zz       -9.281456
   xy        0.000000
   xz        0.000000        Anisotropy:           11.078905
   yz        0.000000




                         8 triplet a1 excitation


 Total energy:                           -417.3328671602963    

 Excitation energy:                      0.2883147532036756    

 Excitation energy / eV:                  7.845446971080994    

 Excitation energy / nm:                  158.0333720481257    

 Excitation energy / cm^(-1):             63277.77398473835    


 Oscillator strength:

    velocity representation:             0.3144888666273302E-02

    length representation:               0.8885519649279182E-02

    mixed representation:                0.5286205637219084E-02


 Rotatory strength:

    velocity representation:              0.000000000000000    

    velocity rep. / 10^(-40)erg*cm^3:     0.000000000000000    

    length representation:                0.000000000000000    

    length rep. / 10^(-40)erg*cm^3:       0.000000000000000    


 Dominant contributions:

    occ. orbital  energy / eV   virt. orbital  energy / eV   |coeff.|^2*100
       2 a2         -7.21           4 a2          2.00           36.9
       1 b2        -12.46           4 b2         -2.12           27.2
       1 a2         -9.86           3 a2         -0.85           13.5
       2 b2        -10.20           4 b2         -2.12            8.8
       2 b2        -10.20           5 b2          0.01            6.3
 

 S^2 expectation value:                     2.00000000


 Change of electron number:

            -0.000000


 Electric transition dipole moment (velocity rep.):

    x        0.000000        Norm:                  0.127913
    y        0.000000
    z       -0.127913        Norm / debye:          0.325125


 Electric transition dipole moment (length rep.):

    x        0.000000        Norm:                  0.215008
    y        0.000000
    z       -0.215008        Norm / debye:          0.546499


 Magnetic transition dipole moment / i:

    x        0.000000        Norm:                  0.000000
    y        0.000000
    z        0.000000        Norm / Bohr mag.:      0.000000


 Electric quadrupole transition moment:

   xx        2.053862
   yy       -0.569988        1/3*trace:            -0.396481
   zz       -2.673317
   xy        0.000000
   xz        0.000000        Anisotropy:            4.102122
   yz        0.000000




                         9 triplet a1 excitation


 Total energy:                           -417.3256369822856    

 Excitation energy:                      0.2955449312143568    

 Excitation energy / eV:                  8.042190209309261    

 Excitation energy / nm:                  154.1672613798042    

 Excitation energy / cm^(-1):             64864.61463352785    


 Oscillator strength:

    velocity representation:             0.1098636493712646E-01

    length representation:               0.7130224984928842E-02

    mixed representation:                0.8850720522547600E-02


 Rotatory strength:

    velocity representation:              0.000000000000000    

    velocity rep. / 10^(-40)erg*cm^3:     0.000000000000000    

    length representation:                0.000000000000000    

    length rep. / 10^(-40)erg*cm^3:       0.000000000000000    


 Dominant contributions:

    occ. orbital  energy / eV   virt. orbital  energy / eV   |coeff.|^2*100
      16 a1         -7.24          18 a1          2.06           51.1
      16 a1         -7.24          17 a1          1.59           40.6
 

 S^2 expectation value:                     2.00000000


 Change of electron number:

            -0.000000


 Electric transition dipole moment (velocity rep.):

    x        0.000000        Norm:                  0.236135
    y        0.000000
    z        0.236135        Norm / debye:          0.600201


 Electric transition dipole moment (length rep.):

    x        0.000000        Norm:                  0.190233
    y        0.000000
    z        0.190233        Norm / debye:          0.483527


 Magnetic transition dipole moment / i:

    x        0.000000        Norm:                  0.000000
    y        0.000000
    z        0.000000        Norm / Bohr mag.:      0.000000


 Electric quadrupole transition moment:

   xx       -1.547260
   yy        0.076021        1/3*trace:            -1.329458
   zz       -2.517135
   xy        0.000000
   xz        0.000000        Anisotropy:            2.269378
   yz        0.000000




                        10 triplet a1 excitation


 Total energy:                           -417.3130521057292    

 Excitation energy:                      0.3081298077707970    

 Excitation energy / eV:                  8.384642271037102    

 Excitation energy / nm:                  147.8706425374217    

 Excitation energy / cm^(-1):             67626.67576815767    


 Oscillator strength:

    velocity representation:             0.4588141256167210E-01

    length representation:               0.3543233408317405E-01

    mixed representation:                0.4031979089842982E-01


 Rotatory strength:

    velocity representation:              0.000000000000000    

    velocity rep. / 10^(-40)erg*cm^3:     0.000000000000000    

    length representation:                0.000000000000000    

    length rep. / 10^(-40)erg*cm^3:       0.000000000000000    


 Dominant contributions:

    occ. orbital  energy / eV   virt. orbital  energy / eV   |coeff.|^2*100
      16 a1         -7.24          19 a1          2.63           92.7
 

 S^2 expectation value:                     2.00000000


 Change of electron number:

             0.000000


 Electric transition dipole moment (velocity rep.):

    x        0.000000        Norm:                  0.472604
    y        0.000000
    z       -0.472604        Norm / debye:          1.201248


 Electric transition dipole moment (length rep.):

    x        0.000000        Norm:                  0.415316
    y        0.000000
    z       -0.415316        Norm / debye:          1.055636


 Magnetic transition dipole moment / i:

    x        0.000000        Norm:                  0.000000
    y        0.000000
    z        0.000000        Norm / Bohr mag.:      0.000000


 Electric quadrupole transition moment:

   xx        2.492285
   yy        0.893793        1/3*trace:             2.390495
   zz        3.785407
   xy        0.000000
   xz        0.000000        Anisotropy:            2.508861
   yz        0.000000



 ==============================================================================

                              I R R E P   a2  

 ==============================================================================


 Excitation is electric dipole forbidden

 Excitation is magnetic dipole allowed

 Excitation is electric quadrupole allowed




                         1 triplet a2 excitation


 Total energy:                           -417.4573779532706    

 Excitation energy:                      0.1638039602294383    

 Excitation energy / eV:                  4.457334456018169    

 Excitation energy / nm:                  278.1578210696491    

 Excitation energy / cm^(-1):             35950.81367855345    


 Oscillator strength:

    velocity representation:              0.000000000000000    

    length representation:                0.000000000000000    

    mixed representation:                 0.000000000000000    


 Rotatory strength:

    velocity representation:              0.000000000000000    

    velocity rep. / 10^(-40)erg*cm^3:     0.000000000000000    

    length representation:                0.000000000000000    

    length rep. / 10^(-40)erg*cm^3:       0.000000000000000    


 Dominant contributions:

    occ. orbital  energy / eV   virt. orbital  energy / eV   |coeff.|^2*100
      13 b1         -9.01           4 b2         -2.12           79.2
      16 a1         -7.24           3 a2         -0.85           10.3
      13 b1         -9.01           5 b2          0.01            4.6
 

 S^2 expectation value:                     2.00000000


 Change of electron number:

             0.000000


 Electric transition dipole moment (velocity rep.):

    x        0.000000        Norm:                  0.000000
    y        0.000000
    z        0.000000        Norm / debye:          0.000000


 Electric transition dipole moment (length rep.):

    x        0.000000        Norm:                  0.000000
    y        0.000000
    z        0.000000        Norm / debye:          0.000000


 Magnetic transition dipole moment / i:

    x        0.000000        Norm:                  0.005760
    y        0.000000
    z        0.005760        Norm / Bohr mag.:      1.578773


 Electric quadrupole transition moment:

   xx        0.000000
   yy        0.000000        1/3*trace:             0.000000
   zz        0.000000
   xy        1.882979
   xz        0.000000        Anisotropy:            3.261415
   yz        0.000000




                         2 triplet a2 excitation


 Total energy:                           -417.4459799501338    

 Excitation energy:                      0.1752019633661376    

 Excitation energy / eV:                  4.767490034917796    

 Excitation energy / nm:                  260.0618839229648    

 Excitation energy / cm^(-1):             38452.38620769798    


 Oscillator strength:

    velocity representation:              0.000000000000000    

    length representation:                0.000000000000000    

    mixed representation:                 0.000000000000000    


 Rotatory strength:

    velocity representation:              0.000000000000000    

    velocity rep. / 10^(-40)erg*cm^3:     0.000000000000000    

    length representation:                0.000000000000000    

    length rep. / 10^(-40)erg*cm^3:       0.000000000000000    


 Dominant contributions:

    occ. orbital  energy / eV   virt. orbital  energy / eV   |coeff.|^2*100
      16 a1         -7.24           3 a2         -0.85           88.2
      13 b1         -9.01           4 b2         -2.12           10.0
 

 S^2 expectation value:                     2.00000000


 Change of electron number:

             0.000000


 Electric transition dipole moment (velocity rep.):

    x        0.000000        Norm:                  0.000000
    y        0.000000
    z        0.000000        Norm / debye:          0.000000


 Electric transition dipole moment (length rep.):

    x        0.000000        Norm:                  0.000000
    y        0.000000
    z        0.000000        Norm / debye:          0.000000


 Magnetic transition dipole moment / i:

    x        0.000000        Norm:                  0.001670
    y        0.000000
    z       -0.001670        Norm / Bohr mag.:      0.457711


 Electric quadrupole transition moment:

   xx        0.000000
   yy        0.000000        1/3*trace:             0.000000
   zz        0.000000
   xy       -0.502470
   xz        0.000000        Anisotropy:            0.870303
   yz        0.000000




                         3 triplet a2 excitation


 Total energy:                           -417.3780548574229    

 Excitation energy:                      0.2431270560770875    

 Excitation energy / eV:                  6.615826642559434    

 Excitation energy / nm:                  187.4055211919868    

 Excitation energy / cm^(-1):             53360.22084569697    


 Oscillator strength:

    velocity representation:              0.000000000000000    

    length representation:                0.000000000000000    

    mixed representation:                 0.000000000000000    


 Rotatory strength:

    velocity representation:              0.000000000000000    

    velocity rep. / 10^(-40)erg*cm^3:     0.000000000000000    

    length representation:                0.000000000000000    

    length rep. / 10^(-40)erg*cm^3:       0.000000000000000    


 Dominant contributions:

    occ. orbital  energy / eV   virt. orbital  energy / eV   |coeff.|^2*100
      12 b1        -10.44           4 b2         -2.12           95.5
 

 S^2 expectation value:                     2.00000000


 Change of electron number:

             0.000000


 Electric transition dipole moment (velocity rep.):

    x        0.000000        Norm:                  0.000000
    y        0.000000
    z        0.000000        Norm / debye:          0.000000


 Electric transition dipole moment (length rep.):

    x        0.000000        Norm:                  0.000000
    y        0.000000
    z        0.000000        Norm / debye:          0.000000


 Magnetic transition dipole moment / i:

    x        0.000000        Norm:                  0.000565
    y        0.000000
    z       -0.000565        Norm / Bohr mag.:      0.154751


 Electric quadrupole transition moment:

   xx        0.000000
   yy        0.000000        1/3*trace:             0.000000
   zz        0.000000
   xy       -0.248636
   xz        0.000000        Anisotropy:            0.430651
   yz        0.000000




                         4 triplet a2 excitation


 Total energy:                           -417.3492644071211    

 Excitation energy:                      0.2719175063788778    

 Excitation energy / eV:                  7.399254991634147    

 Excitation energy / nm:                  167.5631454067324    

 Excitation energy / cm^(-1):             59678.99429336911    


 Oscillator strength:

    velocity representation:              0.000000000000000    

    length representation:                0.000000000000000    

    mixed representation:                 0.000000000000000    


 Rotatory strength:

    velocity representation:              0.000000000000000    

    velocity rep. / 10^(-40)erg*cm^3:     0.000000000000000    

    length representation:                0.000000000000000    

    length rep. / 10^(-40)erg*cm^3:       0.000000000000000    


 Dominant contributions:

    occ. orbital  energy / eV   virt. orbital  energy / eV   |coeff.|^2*100
      13 b1         -9.01           5 b2          0.01           64.6
      16 a1         -7.24           4 a2          2.00           19.8
      13 b1         -9.01           4 b2         -2.12            9.6
 

 S^2 expectation value:                     2.00000000


 Change of electron number:

             0.000000


 Electric transition dipole moment (velocity rep.):

    x        0.000000        Norm:                  0.000000
    y        0.000000
    z        0.000000        Norm / debye:          0.000000


 Electric transition dipole moment (length rep.):

    x        0.000000        Norm:                  0.000000
    y        0.000000
    z        0.000000        Norm / debye:          0.000000


 Magnetic transition dipole moment / i:

    x        0.000000        Norm:                  0.002983
    y        0.000000
    z       -0.002983        Norm / Bohr mag.:      0.817505


 Electric quadrupole transition moment:

   xx        0.000000
   yy        0.000000        1/3*trace:             0.000000
   zz        0.000000
   xy       -0.937085
   xz        0.000000        Anisotropy:            1.623079
   yz        0.000000




                         5 triplet a2 excitation


 Total energy:                           -417.3451820711688    

 Excitation energy:                      0.2759998423312005    

 Excitation energy / eV:                  7.510341052531832    

 Excitation energy / nm:                  165.0847053938671    

 Excitation energy / cm^(-1):             60574.96346889845    


 Oscillator strength:

    velocity representation:              0.000000000000000    

    length representation:                0.000000000000000    

    mixed representation:                 0.000000000000000    


 Rotatory strength:

    velocity representation:              0.000000000000000    

    velocity rep. / 10^(-40)erg*cm^3:     0.000000000000000    

    length representation:                0.000000000000000    

    length rep. / 10^(-40)erg*cm^3:       0.000000000000000    


 Dominant contributions:

    occ. orbital  energy / eV   virt. orbital  energy / eV   |coeff.|^2*100
       2 a2         -7.21          17 a1          1.59           95.5
 

 S^2 expectation value:                     2.00000000


 Change of electron number:

             0.000000


 Electric transition dipole moment (velocity rep.):

    x        0.000000        Norm:                  0.000000
    y        0.000000
    z        0.000000        Norm / debye:          0.000000


 Electric transition dipole moment (length rep.):

    x        0.000000        Norm:                  0.000000
    y        0.000000
    z        0.000000        Norm / debye:          0.000000


 Magnetic transition dipole moment / i:

    x        0.000000        Norm:                  0.000194
    y        0.000000
    z       -0.000194        Norm / Bohr mag.:      0.053103


 Electric quadrupole transition moment:

   xx        0.000000
   yy        0.000000        1/3*trace:             0.000000
   zz        0.000000
   xy        0.198053
   xz        0.000000        Anisotropy:            0.343038
   yz        0.000000




                         6 triplet a2 excitation


 Total energy:                           -417.3398357191183    

 Excitation energy:                      0.2813461943816785    

 Excitation energy / eV:                  7.655822756241682    

 Excitation energy / nm:                  161.9476416239989    

 Excitation energy / cm^(-1):             61748.35211076931    


 Oscillator strength:

    velocity representation:              0.000000000000000    

    length representation:                0.000000000000000    

    mixed representation:                 0.000000000000000    


 Rotatory strength:

    velocity representation:              0.000000000000000    

    velocity rep. / 10^(-40)erg*cm^3:     0.000000000000000    

    length representation:                0.000000000000000    

    length rep. / 10^(-40)erg*cm^3:       0.000000000000000    


 Dominant contributions:

    occ. orbital  energy / eV   virt. orbital  energy / eV   |coeff.|^2*100
      16 a1         -7.24           4 a2          2.00           44.4
      15 a1        -10.46           3 a2         -0.85           28.8
      13 b1         -9.01           5 b2          0.01           21.9
 

 S^2 expectation value:                     2.00000000


 Change of electron number:

             0.000000


 Electric transition dipole moment (velocity rep.):

    x        0.000000        Norm:                  0.000000
    y        0.000000
    z        0.000000        Norm / debye:          0.000000


 Electric transition dipole moment (length rep.):

    x        0.000000        Norm:                  0.000000
    y        0.000000
    z        0.000000        Norm / debye:          0.000000


 Magnetic transition dipole moment / i:

    x        0.000000        Norm:                  0.000457
    y        0.000000
    z       -0.000457        Norm / Bohr mag.:      0.125285


 Electric quadrupole transition moment:

   xx        0.000000
   yy        0.000000        1/3*trace:             0.000000
   zz        0.000000
   xy        0.161775
   xz        0.000000        Anisotropy:            0.280203
   yz        0.000000




                         7 triplet a2 excitation


 Total energy:                           -417.3265142483945    

 Excitation energy:                      0.2946676651054514    

 Excitation energy / eV:                  8.018318573673325    

 Excitation energy / nm:                  154.6262384903835    

 Excitation energy / cm^(-1):             64672.07697825024    


 Oscillator strength:

    velocity representation:              0.000000000000000    

    length representation:                0.000000000000000    

    mixed representation:                 0.000000000000000    


 Rotatory strength:

    velocity representation:              0.000000000000000    

    velocity rep. / 10^(-40)erg*cm^3:     0.000000000000000    

    length representation:                0.000000000000000    

    length rep. / 10^(-40)erg*cm^3:       0.000000000000000    


 Dominant contributions:

    occ. orbital  energy / eV   virt. orbital  energy / eV   |coeff.|^2*100
      15 a1        -10.46           3 a2         -0.85           64.9
      16 a1         -7.24           4 a2          2.00           27.2
 

 S^2 expectation value:                     2.00000000


 Change of electron number:

             0.000000


 Electric transition dipole moment (velocity rep.):

    x        0.000000        Norm:                  0.000000
    y        0.000000
    z        0.000000        Norm / debye:          0.000000


 Electric transition dipole moment (length rep.):

    x        0.000000        Norm:                  0.000000
    y        0.000000
    z        0.000000        Norm / debye:          0.000000


 Magnetic transition dipole moment / i:

    x        0.000000        Norm:                  0.002305
    y        0.000000
    z       -0.002305        Norm / Bohr mag.:      0.631641


 Electric quadrupole transition moment:

   xx        0.000000
   yy        0.000000        1/3*trace:             0.000000
   zz        0.000000
   xy       -0.463227
   xz        0.000000        Anisotropy:            0.802333
   yz        0.000000




                         8 triplet a2 excitation


 Total energy:                           -417.3223796211194    

 Excitation energy:                      0.2988022923806318    

 Excitation energy / eV:                  8.130827554473544    

 Excitation energy / nm:                  152.4866235027365    

 Excitation energy / cm^(-1):             65579.52277255259    


 Oscillator strength:

    velocity representation:              0.000000000000000    

    length representation:                0.000000000000000    

    mixed representation:                 0.000000000000000    


 Rotatory strength:

    velocity representation:              0.000000000000000    

    velocity rep. / 10^(-40)erg*cm^3:     0.000000000000000    

    length representation:                0.000000000000000    

    length rep. / 10^(-40)erg*cm^3:       0.000000000000000    


 Dominant contributions:

    occ. orbital  energy / eV   virt. orbital  energy / eV   |coeff.|^2*100
      11 b1        -12.15           4 b2         -2.12           60.5
      12 b1        -10.44           5 b2          0.01           30.3
 

 S^2 expectation value:                     2.00000000


 Change of electron number:

             0.000000


 Electric transition dipole moment (velocity rep.):

    x        0.000000        Norm:                  0.000000
    y        0.000000
    z        0.000000        Norm / debye:          0.000000


 Electric transition dipole moment (length rep.):

    x        0.000000        Norm:                  0.000000
    y        0.000000
    z        0.000000        Norm / debye:          0.000000


 Magnetic transition dipole moment / i:

    x        0.000000        Norm:                  0.000969
    y        0.000000
    z        0.000969        Norm / Bohr mag.:      0.265465


 Electric quadrupole transition moment:

   xx        0.000000
   yy        0.000000        1/3*trace:             0.000000
   zz        0.000000
   xy        0.173672
   xz        0.000000        Anisotropy:            0.300809
   yz        0.000000




                         9 triplet a2 excitation


 Total energy:                           -417.3151828378368    

 Excitation energy:                      0.3059990756632032    

 Excitation energy / eV:                  8.326662075525229    

 Excitation energy / nm:                  148.9002950785026    

 Excitation energy / cm^(-1):             67159.03412572289    


 Oscillator strength:

    velocity representation:              0.000000000000000    

    length representation:                0.000000000000000    

    mixed representation:                 0.000000000000000    


 Rotatory strength:

    velocity representation:              0.000000000000000    

    velocity rep. / 10^(-40)erg*cm^3:     0.000000000000000    

    length representation:                0.000000000000000    

    length rep. / 10^(-40)erg*cm^3:       0.000000000000000    


 Dominant contributions:

    occ. orbital  energy / eV   virt. orbital  energy / eV   |coeff.|^2*100
       2 a2         -7.21          18 a1          2.06           73.9
       2 a2         -7.21          19 a1          2.63           22.3
 

 S^2 expectation value:                     2.00000000


 Change of electron number:

             0.000000


 Electric transition dipole moment (velocity rep.):

    x        0.000000        Norm:                  0.000000
    y        0.000000
    z        0.000000        Norm / debye:          0.000000


 Electric transition dipole moment (length rep.):

    x        0.000000        Norm:                  0.000000
    y        0.000000
    z        0.000000        Norm / debye:          0.000000


 Magnetic transition dipole moment / i:

    x        0.000000        Norm:                  0.000771
    y        0.000000
    z       -0.000771        Norm / Bohr mag.:      0.211416


 Electric quadrupole transition moment:

   xx        0.000000
   yy        0.000000        1/3*trace:             0.000000
   zz        0.000000
   xy       -0.412734
   xz        0.000000        Anisotropy:            0.714877
   yz        0.000000




                        10 triplet a2 excitation


 Total energy:                           -417.3066732636749    

 Excitation energy:                      0.3145086498250761    

 Excitation energy / eV:                  8.558219469281946    

 Excitation energy / nm:                  144.8715406884405    

 Excitation energy / cm^(-1):             69026.66977231420    


 Oscillator strength:

    velocity representation:              0.000000000000000    

    length representation:                0.000000000000000    

    mixed representation:                 0.000000000000000    


 Rotatory strength:

    velocity representation:              0.000000000000000    

    velocity rep. / 10^(-40)erg*cm^3:     0.000000000000000    

    length representation:                0.000000000000000    

    length rep. / 10^(-40)erg*cm^3:       0.000000000000000    


 Dominant contributions:

    occ. orbital  energy / eV   virt. orbital  energy / eV   |coeff.|^2*100
       2 a2         -7.21          19 a1          2.63           73.7
       2 a2         -7.21          18 a1          2.06           22.0
 

 S^2 expectation value:                     2.00000000


 Change of electron number:

             0.000000


 Electric transition dipole moment (velocity rep.):

    x        0.000000        Norm:                  0.000000
    y        0.000000
    z        0.000000        Norm / debye:          0.000000


 Electric transition dipole moment (length rep.):

    x        0.000000        Norm:                  0.000000
    y        0.000000
    z        0.000000        Norm / debye:          0.000000


 Magnetic transition dipole moment / i:

    x        0.000000        Norm:                  0.002098
    y        0.000000
    z       -0.002098        Norm / Bohr mag.:      0.574966


 Electric quadrupole transition moment:

   xx        0.000000
   yy        0.000000        1/3*trace:             0.000000
   zz        0.000000
   xy       -1.436750
   xz        0.000000        Anisotropy:            2.488523
   yz        0.000000



 ==============================================================================

                              I R R E P   b1  

 ==============================================================================


 Excitation is electric dipole allowed

 Excitation is magnetic dipole allowed

 Excitation is electric quadrupole allowed




                         1 triplet b1 excitation


 Total energy:                           -417.5081928732454    

 Excitation energy:                      0.1129890402545305    

 Excitation energy / eV:                  3.074589537234107    

 Excitation energy / nm:                  403.2546214868221    

 Excitation energy / cm^(-1):             24798.22788301051    


 Oscillator strength:

    velocity representation:             0.3720405670840100    

    length representation:               0.2213213354544619    

    mixed representation:                0.2869503705351649    


 Rotatory strength:

    velocity representation:              0.000000000000000    

    velocity rep. / 10^(-40)erg*cm^3:     0.000000000000000    

    length representation:                0.000000000000000    

    length rep. / 10^(-40)erg*cm^3:       0.000000000000000    


 Dominant contributions:

    occ. orbital  energy / eV   virt. orbital  energy / eV   |coeff.|^2*100
       2 a2         -7.21           4 b2         -2.12           89.1
       2 a2         -7.21           5 b2          0.01            3.2
 

 S^2 expectation value:                     2.00000000


 Change of electron number:

             0.000000


 Electric transition dipole moment (velocity rep.):

    x       -2.222402        Norm:                  2.222402
    y        0.000000
    z        0.000000        Norm / debye:          5.648825


 Electric transition dipole moment (length rep.):

    x       -1.714112        Norm:                  1.714112
    y        0.000000
    z        0.000000        Norm / debye:          4.356870


 Magnetic transition dipole moment / i:

    x        0.000000        Norm:                  0.000110
    y       -0.000110
    z        0.000000        Norm / Bohr mag.:      0.030109


 Electric quadrupole transition moment:

   xx        0.000000
   yy        0.000000        1/3*trace:             0.000000
   zz        0.000000
   xy        0.000000
   xz       -0.189737        Anisotropy:            0.328635
   yz        0.000000




                         2 triplet b1 excitation


 Total energy:                           -417.4550665044613    

 Excitation energy:                      0.1661154090386937    

 Excitation energy / eV:                  4.520232205293493    

 Excitation energy / nm:                  274.2873338703143    

 Excitation energy / cm^(-1):             36458.11805234675    


 Oscillator strength:

    velocity representation:             0.5452585370492715    

    length representation:               0.5009722652420835    

    mixed representation:                0.5226465387316347    


 Rotatory strength:

    velocity representation:              0.000000000000000    

    velocity rep. / 10^(-40)erg*cm^3:     0.000000000000000    

    length representation:                0.000000000000000    

    length rep. / 10^(-40)erg*cm^3:       0.000000000000000    


 Dominant contributions:

    occ. orbital  energy / eV   virt. orbital  energy / eV   |coeff.|^2*100
       3 b2         -7.57           3 a2         -0.85           91.5
 

 S^2 expectation value:                     2.00000000


 Change of electron number:

             0.000000


 Electric transition dipole moment (velocity rep.):

    x       -2.218921        Norm:                  2.218921
    y        0.000000
    z        0.000000        Norm / debye:          5.639978


 Electric transition dipole moment (length rep.):

    x       -2.126902        Norm:                  2.126902
    y        0.000000
    z        0.000000        Norm / debye:          5.406087


 Magnetic transition dipole moment / i:

    x        0.000000        Norm:                  0.000049
    y       -0.000049
    z        0.000000        Norm / Bohr mag.:      0.013530


 Electric quadrupole transition moment:

   xx        0.000000
   yy        0.000000        1/3*trace:             0.000000
   zz        0.000000
   xy        0.000000
   xz        0.079881        Anisotropy:            0.138359
   yz        0.000000




                         3 triplet b1 excitation


 Total energy:                           -417.4477068647838    

 Excitation energy:                      0.1734750487161603    

 Excitation energy / eV:                  4.720498276225489    

 Excitation energy / nm:                  262.6507558130202    

 Excitation energy / cm^(-1):             38073.37225264380    


 Oscillator strength:

    velocity representation:             0.5833966589140422E-03

    length representation:               0.1703726085543307E-03

    mixed representation:                0.3152694254143057E-03


 Rotatory strength:

    velocity representation:              0.000000000000000    

    velocity rep. / 10^(-40)erg*cm^3:     0.000000000000000    

    length representation:                0.000000000000000    

    length rep. / 10^(-40)erg*cm^3:       0.000000000000000    


 Dominant contributions:

    occ. orbital  energy / eV   virt. orbital  energy / eV   |coeff.|^2*100
       2 a2         -7.21           5 b2          0.01           58.4
       1 a2         -9.86           4 b2         -2.12           36.7
 

 S^2 expectation value:                     2.00000000


 Change of electron number:

             0.000000


 Electric transition dipole moment (velocity rep.):

    x       -0.071025        Norm:                  0.071025
    y        0.000000
    z        0.000000        Norm / debye:          0.180528


 Electric transition dipole moment (length rep.):

    x       -0.038382        Norm:                  0.038382
    y        0.000000
    z        0.000000        Norm / debye:          0.097558


 Magnetic transition dipole moment / i:

    x        0.000000        Norm:                  0.006116
    y        0.006116
    z        0.000000        Norm / Bohr mag.:      1.676166


 Electric quadrupole transition moment:

   xx        0.000000
   yy        0.000000        1/3*trace:             0.000000
   zz        0.000000
   xy        0.000000
   xz        4.710045        Anisotropy:            8.158037
   yz        0.000000




                         4 triplet b1 excitation


 Total energy:                           -417.4083568207064    

 Excitation energy:                      0.2128250927935784    

 Excitation energy / eV:                  5.791267914923073    

 Excitation energy / nm:                  214.0882546410655    

 Excitation energy / cm^(-1):             46709.70864456384    


 Oscillator strength:

    velocity representation:             0.5490450952745995    

    length representation:               0.4482449197487999    

    mixed representation:                0.4960913974963032    


 Rotatory strength:

    velocity representation:              0.000000000000000    

    velocity rep. / 10^(-40)erg*cm^3:     0.000000000000000    

    length representation:                0.000000000000000    

    length rep. / 10^(-40)erg*cm^3:       0.000000000000000    


 Dominant contributions:

    occ. orbital  energy / eV   virt. orbital  energy / eV   |coeff.|^2*100
       1 a2         -9.86           4 b2         -2.12           52.3
       2 a2         -7.21           5 b2          0.01           35.8
       2 a2         -7.21           4 b2         -2.12            4.1
 

 S^2 expectation value:                     2.00000000


 Change of electron number:

             0.000000


 Electric transition dipole moment (velocity rep.):

    x       -1.967153        Norm:                  1.967153
    y        0.000000
    z        0.000000        Norm / debye:          5.000043


 Electric transition dipole moment (length rep.):

    x       -1.777428        Norm:                  1.777428
    y        0.000000
    z        0.000000        Norm / debye:          4.517804


 Magnetic transition dipole moment / i:

    x        0.000000        Norm:                  0.000010
    y       -0.000010
    z        0.000000        Norm / Bohr mag.:      0.002752


 Electric quadrupole transition moment:

   xx        0.000000
   yy        0.000000        1/3*trace:             0.000000
   zz        0.000000
   xy        0.000000
   xz       -0.217809        Anisotropy:            0.377257
   yz        0.000000




                         5 triplet b1 excitation


 Total energy:                           -417.3667136336854    

 Excitation energy:                      0.2544682798145799    

 Excitation energy / eV:                  6.924437174732948    

 Excitation energy / nm:                  179.0531719442598    

 Excitation energy / cm^(-1):             55849.33173716920    


 Oscillator strength:

    velocity representation:             0.5299200689910243E-03

    length representation:               0.3086396050565057E-03

    mixed representation:                0.4044184971102411E-03


 Rotatory strength:

    velocity representation:              0.000000000000000    

    velocity rep. / 10^(-40)erg*cm^3:     0.000000000000000    

    length representation:                0.000000000000000    

    length rep. / 10^(-40)erg*cm^3:       0.000000000000000    


 Dominant contributions:

    occ. orbital  energy / eV   virt. orbital  energy / eV   |coeff.|^2*100
       2 b2        -10.20           3 a2         -0.85           56.7
       3 b2         -7.57           4 a2          2.00           38.5
 

 S^2 expectation value:                     2.00000000


 Change of electron number:

             0.000000


 Electric transition dipole moment (velocity rep.):

    x       -0.055890        Norm:                  0.055890
    y        0.000000
    z        0.000000        Norm / debye:          0.142059


 Electric transition dipole moment (length rep.):

    x       -0.042653        Norm:                  0.042653
    y        0.000000
    z        0.000000        Norm / debye:          0.108415


 Magnetic transition dipole moment / i:

    x        0.000000        Norm:                  0.002315
    y        0.002315
    z        0.000000        Norm / Bohr mag.:      0.634431


 Electric quadrupole transition moment:

   xx        0.000000
   yy        0.000000        1/3*trace:             0.000000
   zz        0.000000
   xy        0.000000
   xz        9.449533        Anisotropy:           16.367072
   yz        0.000000




                         6 triplet b1 excitation


 Total energy:                           -417.3233766132661    

 Excitation energy:                      0.2978053002338503    

 Excitation energy / eV:                  8.103698006189093    

 Excitation energy / nm:                  152.9971179969651    

 Excitation energy / cm^(-1):             65360.70828932691    


 Oscillator strength:

    velocity representation:             0.2960167220255903    

    length representation:               0.2520911045496464    

    mixed representation:                0.2731724408145827    


 Rotatory strength:

    velocity representation:              0.000000000000000    

    velocity rep. / 10^(-40)erg*cm^3:     0.000000000000000    

    length representation:                0.000000000000000    

    length rep. / 10^(-40)erg*cm^3:       0.000000000000000    


 Dominant contributions:

    occ. orbital  energy / eV   virt. orbital  energy / eV   |coeff.|^2*100
       1 a2         -9.86           5 b2          0.01           72.8
       3 b2         -7.57           4 a2          2.00            9.1
       2 b2        -10.20           3 a2         -0.85            5.4
       1 b2        -12.46           3 a2         -0.85            3.8
 

 S^2 expectation value:                     2.00000000


 Change of electron number:

             0.000000


 Electric transition dipole moment (velocity rep.):

    x       -1.221062        Norm:                  1.221062
    y        0.000000
    z        0.000000        Norm / debye:          3.103652


 Electric transition dipole moment (length rep.):

    x       -1.126829        Norm:                  1.126829
    y        0.000000
    z        0.000000        Norm / debye:          2.864136


 Magnetic transition dipole moment / i:

    x        0.000000        Norm:                  0.001788
    y        0.001788
    z        0.000000        Norm / Bohr mag.:      0.490053


 Electric quadrupole transition moment:

   xx        0.000000
   yy        0.000000        1/3*trace:             0.000000
   zz        0.000000
   xy        0.000000
   xz        1.634815        Anisotropy:            2.831582
   yz        0.000000




                         7 triplet b1 excitation


 Total energy:                           -417.3193266059279    

 Excitation energy:                      0.3018553075720332    

 Excitation energy / eV:                  8.213904360359795    

 Excitation energy / nm:                  150.9443482259360    

 Excitation energy / cm^(-1):             66249.58215420689    


 Oscillator strength:

    velocity representation:             0.7066367722683907E-01

    length representation:               0.5946882916399307E-01

    mixed representation:                0.6482504260779502E-01


 Rotatory strength:

    velocity representation:              0.000000000000000    

    velocity rep. / 10^(-40)erg*cm^3:     0.000000000000000    

    length representation:                0.000000000000000    

    length rep. / 10^(-40)erg*cm^3:       0.000000000000000    


 Dominant contributions:

    occ. orbital  energy / eV   virt. orbital  energy / eV   |coeff.|^2*100
       3 b2         -7.57           4 a2          2.00           46.2
       2 b2        -10.20           3 a2         -0.85           31.4
       1 a2         -9.86           5 b2          0.01           17.5
 

 S^2 expectation value:                     2.00000000


 Change of electron number:

             0.000000


 Electric transition dipole moment (velocity rep.):

    x        0.592576        Norm:                  0.592576
    y        0.000000
    z        0.000000        Norm / debye:          1.506190


 Electric transition dipole moment (length rep.):

    x        0.543614        Norm:                  0.543614
    y        0.000000
    z        0.000000        Norm / debye:          1.381740


 Magnetic transition dipole moment / i:

    x        0.000000        Norm:                  0.000225
    y        0.000225
    z        0.000000        Norm / Bohr mag.:      0.061547


 Electric quadrupole transition moment:

   xx        0.000000
   yy        0.000000        1/3*trace:             0.000000
   zz        0.000000
   xy        0.000000
   xz        0.578990        Anisotropy:            1.002841
   yz        0.000000




                         8 triplet b1 excitation


 Total energy:                           -417.3061377974641    

 Excitation energy:                      0.3150441160358280    

 Excitation energy / eV:                  8.572790252478365    

 Excitation energy / nm:                  144.6253090942297    

 Excitation energy / cm^(-1):             69144.19102117130    


 Oscillator strength:

    velocity representation:             0.1590925260119966    

    length representation:               0.1389731830337130    

    mixed representation:                0.1486929545632911    


 Rotatory strength:

    velocity representation:              0.000000000000000    

    velocity rep. / 10^(-40)erg*cm^3:     0.000000000000000    

    length representation:                0.000000000000000    

    length rep. / 10^(-40)erg*cm^3:       0.000000000000000    


 Dominant contributions:

    occ. orbital  energy / eV   virt. orbital  energy / eV   |coeff.|^2*100
      16 a1         -7.24          14 b1          2.42           79.9
      16 a1         -7.24          15 b1          2.97           13.3
 

 S^2 expectation value:                     2.00000000


 Change of electron number:

             0.000000


 Electric transition dipole moment (velocity rep.):

    x       -0.870332        Norm:                  0.870332
    y        0.000000
    z        0.000000        Norm / debye:          2.212179


 Electric transition dipole moment (length rep.):

    x       -0.813440        Norm:                  0.813440
    y        0.000000
    z        0.000000        Norm / debye:          2.067573


 Magnetic transition dipole moment / i:

    x        0.000000        Norm:                  0.000659
    y       -0.000659
    z        0.000000        Norm / Bohr mag.:      0.180513


 Electric quadrupole transition moment:

   xx        0.000000
   yy        0.000000        1/3*trace:             0.000000
   zz        0.000000
   xy        0.000000
   xz       -1.673289        Anisotropy:            2.898221
   yz        0.000000




                         9 triplet b1 excitation


 Total energy:                           -417.2936640243373    

 Excitation energy:                      0.3275178891626643    

 Excitation energy / eV:                  8.912219034767407    

 Excitation energy / nm:                  139.1171418956313    

 Excitation energy / cm^(-1):             71881.86777161928    


 Oscillator strength:

    velocity representation:             0.1343299410724907    

    length representation:               0.1149512915132327    

    mixed representation:                0.1242634307235208    


 Rotatory strength:

    velocity representation:              0.000000000000000    

    velocity rep. / 10^(-40)erg*cm^3:     0.000000000000000    

    length representation:                0.000000000000000    

    length rep. / 10^(-40)erg*cm^3:       0.000000000000000    


 Dominant contributions:

    occ. orbital  energy / eV   virt. orbital  energy / eV   |coeff.|^2*100
      16 a1         -7.24          15 b1          2.97           77.1
      16 a1         -7.24          14 b1          2.42           12.4
      16 a1         -7.24          16 b1          3.26            4.7
 

 S^2 expectation value:                     2.00000000


 Change of electron number:

             0.000000


 Electric transition dipole moment (velocity rep.):

    x        0.784358        Norm:                  0.784358
    y        0.000000
    z        0.000000        Norm / debye:          1.993655


 Electric transition dipole moment (length rep.):

    x        0.725580        Norm:                  0.725580
    y        0.000000
    z        0.000000        Norm / debye:          1.844253


 Magnetic transition dipole moment / i:

    x        0.000000        Norm:                  0.004651
    y       -0.004651
    z        0.000000        Norm / Bohr mag.:      1.274724


 Electric quadrupole transition moment:

   xx        0.000000
   yy        0.000000        1/3*trace:             0.000000
   zz        0.000000
   xy        0.000000
   xz       -2.366808        Anisotropy:            4.099431
   yz        0.000000




                        10 triplet b1 excitation


 Total energy:                           -417.2857248458384    

 Excitation energy:                      0.3354570676615292    

 Excitation energy / eV:                  9.128255166164367    

 Excitation energy / nm:                  135.8246913013998    

 Excitation energy / cm^(-1):             73624.31604071904    


 Oscillator strength:

    velocity representation:             0.4723449738623520E-03

    length representation:               0.1103234296419329E-02

    mixed representation:                0.7218775345626418E-03


 Rotatory strength:

    velocity representation:              0.000000000000000    

    velocity rep. / 10^(-40)erg*cm^3:     0.000000000000000    

    length representation:                0.000000000000000    

    length rep. / 10^(-40)erg*cm^3:       0.000000000000000    


 Dominant contributions:

    occ. orbital  energy / eV   virt. orbital  energy / eV   |coeff.|^2*100
       1 b2        -12.46           3 a2         -0.85           54.7
       3 b2         -7.57           5 a2          4.77           17.7
       2 b2        -10.20           4 a2          2.00           15.6
       3 b2         -7.57           4 a2          2.00            3.9
 

 S^2 expectation value:                     2.00000000


 Change of electron number:

             0.000000


 Electric transition dipole moment (velocity rep.):

    x        0.045958        Norm:                  0.045958
    y        0.000000
    z        0.000000        Norm / debye:          0.116813


 Electric transition dipole moment (length rep.):

    x        0.070236        Norm:                  0.070236
    y        0.000000
    z        0.000000        Norm / debye:          0.178524


 Magnetic transition dipole moment / i:

    x        0.000000        Norm:                  0.000446
    y        0.000446
    z        0.000000        Norm / Bohr mag.:      0.122310


 Electric quadrupole transition moment:

   xx        0.000000
   yy        0.000000        1/3*trace:             0.000000
   zz        0.000000
   xy        0.000000
   xz       -0.915737        Anisotropy:            1.586103
   yz        0.000000



 ==============================================================================

                              I R R E P   b2  

 ==============================================================================


 Excitation is electric dipole allowed

 Excitation is magnetic dipole allowed

 Excitation is electric quadrupole allowed




                         1 triplet b2 excitation


 Total energy:                           -417.5124339418736    

 Excitation energy:                      0.1087479716263592    

 Excitation energy / eV:                  2.959184138608779    

 Excitation energy / nm:                  418.9811725091155    

 Excitation energy / cm^(-1):             23867.42091206926    


 Oscillator strength:

    velocity representation:             0.2966292275764743E-01

    length representation:               0.9263195872933920E-02

    mixed representation:                0.1657629221713340E-01


 Rotatory strength:

    velocity representation:              0.000000000000000    

    velocity rep. / 10^(-40)erg*cm^3:     0.000000000000000    

    length representation:                0.000000000000000    

    length rep. / 10^(-40)erg*cm^3:       0.000000000000000    


 Dominant contributions:

    occ. orbital  energy / eV   virt. orbital  energy / eV   |coeff.|^2*100
      16 a1         -7.24           4 b2         -2.12           94.0
 

 S^2 expectation value:                     2.00000000


 Change of electron number:

             0.000000


 Electric transition dipole moment (velocity rep.):

    x        0.000000        Norm:                  0.639649
    y       -0.639649
    z        0.000000        Norm / debye:          1.625839


 Electric transition dipole moment (length rep.):

    x        0.000000        Norm:                  0.357450
    y       -0.357450
    z        0.000000        Norm / debye:          0.908554


 Magnetic transition dipole moment / i:

    x       -0.001063        Norm:                  0.001063
    y        0.000000
    z        0.000000        Norm / Bohr mag.:      0.291452


 Electric quadrupole transition moment:

   xx        0.000000
   yy        0.000000        1/3*trace:             0.000000
   zz        0.000000
   xy        0.000000
   xz        0.000000        Anisotropy:            1.698212
   yz        0.980463




                         2 triplet b2 excitation


 Total energy:                           -417.4141415517021    

 Excitation energy:                      0.2070403617979211    

 Excitation energy / eV:                  5.633857308063365    

 Excitation energy / nm:                  220.0699045554773    

 Excitation energy / cm^(-1):             45440.10694559313    


 Oscillator strength:

    velocity representation:             0.6132237282107876E-02

    length representation:               0.3644851711315634E-02

    mixed representation:                0.4727694528190715E-02


 Rotatory strength:

    velocity representation:              0.000000000000000    

    velocity rep. / 10^(-40)erg*cm^3:     0.000000000000000    

    length representation:                0.000000000000000    

    length rep. / 10^(-40)erg*cm^3:       0.000000000000000    


 Dominant contributions:

    occ. orbital  energy / eV   virt. orbital  energy / eV   |coeff.|^2*100
      16 a1         -7.24           5 b2          0.01           92.5
 

 S^2 expectation value:                     2.00000000


 Change of electron number:

             0.000000


 Electric transition dipole moment (velocity rep.):

    x        0.000000        Norm:                  0.210779
    y       -0.210779
    z        0.000000        Norm / debye:          0.535751


 Electric transition dipole moment (length rep.):

    x        0.000000        Norm:                  0.162502
    y       -0.162502
    z        0.000000        Norm / debye:          0.413041


 Magnetic transition dipole moment / i:

    x       -0.000089        Norm:                  0.000089
    y        0.000000
    z        0.000000        Norm / Bohr mag.:      0.024366


 Electric quadrupole transition moment:

   xx        0.000000
   yy        0.000000        1/3*trace:             0.000000
   zz        0.000000
   xy        0.000000
   xz        0.000000        Anisotropy:            0.681227
   yz        0.393306




                         3 triplet b2 excitation


 Total energy:                           -417.3794600465600    

 Excitation energy:                      0.2417218669399668    

 Excitation energy / eV:                  6.577589484255463    

 Excitation energy / nm:                  188.4949559458597    

 Excitation energy / cm^(-1):             53051.81747876376    


 Oscillator strength:

    velocity representation:             0.1112835381901827E-02

    length representation:               0.5889663372279829E-03

    mixed representation:                0.8095817307822742E-03


 Rotatory strength:

    velocity representation:              0.000000000000000    

    velocity rep. / 10^(-40)erg*cm^3:     0.000000000000000    

    length representation:                0.000000000000000    

    length rep. / 10^(-40)erg*cm^3:       0.000000000000000    


 Dominant contributions:

    occ. orbital  energy / eV   virt. orbital  energy / eV   |coeff.|^2*100
      13 b1         -9.01           3 a2         -0.85           96.9
 

 S^2 expectation value:                     2.00000000


 Change of electron number:

             0.000000


 Electric transition dipole moment (velocity rep.):

    x        0.000000        Norm:                  0.083100
    y       -0.083100
    z        0.000000        Norm / debye:          0.211222


 Electric transition dipole moment (length rep.):

    x        0.000000        Norm:                  0.060455
    y       -0.060455
    z        0.000000        Norm / debye:          0.153663


 Magnetic transition dipole moment / i:

    x       -0.000490        Norm:                  0.000490
    y        0.000000
    z        0.000000        Norm / Bohr mag.:      0.134281


 Electric quadrupole transition moment:

   xx        0.000000
   yy        0.000000        1/3*trace:             0.000000
   zz        0.000000
   xy        0.000000
   xz        0.000000        Anisotropy:            0.831697
   yz        0.480181




                         4 triplet b2 excitation


 Total energy:                           -417.3710999558955    

 Excitation energy:                      0.2500819576044942    

 Excitation energy / eV:                  6.805079223345036    

 Excitation energy / nm:                  182.1936820090742    

 Excitation energy / cm^(-1):             54886.64528997942    


 Oscillator strength:

    velocity representation:             0.5846659410360845E-02

    length representation:               0.3110291952843998E-02

    mixed representation:                0.4264366039057267E-02


 Rotatory strength:

    velocity representation:              0.000000000000000    

    velocity rep. / 10^(-40)erg*cm^3:     0.000000000000000    

    length representation:                0.000000000000000    

    length rep. / 10^(-40)erg*cm^3:       0.000000000000000    


 Dominant contributions:

    occ. orbital  energy / eV   virt. orbital  energy / eV   |coeff.|^2*100
      15 a1        -10.46           4 b2         -2.12           92.5
 

 S^2 expectation value:                     2.00000000


 Change of electron number:

             0.000000


 Electric transition dipole moment (velocity rep.):

    x        0.000000        Norm:                  0.187266
    y        0.187266
    z        0.000000        Norm / debye:          0.475986


 Electric transition dipole moment (length rep.):

    x        0.000000        Norm:                  0.136586
    y        0.136586
    z        0.000000        Norm / debye:          0.347169


 Magnetic transition dipole moment / i:

    x       -0.000237        Norm:                  0.000237
    y        0.000000
    z        0.000000        Norm / Bohr mag.:      0.065014


 Electric quadrupole transition moment:

   xx        0.000000
   yy        0.000000        1/3*trace:             0.000000
   zz        0.000000
   xy        0.000000
   xz        0.000000        Anisotropy:            0.381375
   yz        0.220187




                         5 triplet b2 excitation


 Total energy:                           -417.3346348331884    

 Excitation energy:                      0.2865470803115697    

 Excitation energy / eV:                  7.797346123714929    

 Excitation energy / nm:                  159.0082600404019    

 Excitation energy / cm^(-1):             62889.81462954500    


 Oscillator strength:

    velocity representation:             0.2602342377846679E-02

    length representation:               0.2135634129210784E-02

    mixed representation:                0.2357467114939445E-02


 Rotatory strength:

    velocity representation:              0.000000000000000    

    velocity rep. / 10^(-40)erg*cm^3:     0.000000000000000    

    length representation:                0.000000000000000    

    length rep. / 10^(-40)erg*cm^3:       0.000000000000000    


 Dominant contributions:

    occ. orbital  energy / eV   virt. orbital  energy / eV   |coeff.|^2*100
      12 b1        -10.44           3 a2         -0.85           93.6
 

 S^2 expectation value:                     2.00000000


 Change of electron number:

             0.000000


 Electric transition dipole moment (velocity rep.):

    x        0.000000        Norm:                  0.116716
    y        0.116716
    z        0.000000        Norm / debye:          0.296664


 Electric transition dipole moment (length rep.):

    x        0.000000        Norm:                  0.105733
    y        0.105733
    z        0.000000        Norm / debye:          0.268749


 Magnetic transition dipole moment / i:

    x        0.003587        Norm:                  0.003587
    y        0.000000
    z        0.000000        Norm / Bohr mag.:      0.982997


 Electric quadrupole transition moment:

   xx        0.000000
   yy        0.000000        1/3*trace:             0.000000
   zz        0.000000
   xy        0.000000
   xz        0.000000        Anisotropy:            2.296338
   yz       -1.325792




                         6 triplet b2 excitation


 Total energy:                           -417.3289029381667    

 Excitation energy:                      0.2922789753333235    

 Excitation energy / eV:                  7.953318989956723    

 Excitation energy / nm:                  155.8899425045480    

 Excitation energy / cm^(-1):             64147.82017265559    


 Oscillator strength:

    velocity representation:             0.1308404413996225E-02

    length representation:               0.2456314157603163E-02

    mixed representation:                0.1792722032544197E-02


 Rotatory strength:

    velocity representation:              0.000000000000000    

    velocity rep. / 10^(-40)erg*cm^3:     0.000000000000000    

    length representation:                0.000000000000000    

    length rep. / 10^(-40)erg*cm^3:       0.000000000000000    


 Dominant contributions:

    occ. orbital  energy / eV   virt. orbital  energy / eV   |coeff.|^2*100
       3 b2         -7.57          17 a1          1.59           90.0
 

 S^2 expectation value:                     2.00000000


 Change of electron number:

             0.000000


 Electric transition dipole moment (velocity rep.):

    x        0.000000        Norm:                  0.081944
    y       -0.081944
    z        0.000000        Norm / debye:          0.208283


 Electric transition dipole moment (length rep.):

    x        0.000000        Norm:                  0.112276
    y       -0.112276
    z        0.000000        Norm / debye:          0.285381


 Magnetic transition dipole moment / i:

    x        0.001101        Norm:                  0.001101
    y        0.000000
    z        0.000000        Norm / Bohr mag.:      0.301715


 Electric quadrupole transition moment:

   xx        0.000000
   yy        0.000000        1/3*trace:             0.000000
   zz        0.000000
   xy        0.000000
   xz        0.000000        Anisotropy:            1.131365
   yz       -0.653194




                         7 triplet b2 excitation


 Total energy:                           -417.3160013656045    

 Excitation energy:                      0.3051805478954907    

 Excitation energy / eV:                  8.304388792161857    

 Excitation energy / nm:                  149.2996620335160    

 Excitation energy / cm^(-1):             66979.38804618649    


 Oscillator strength:

    velocity representation:             0.2049535707273950E-04

    length representation:               0.2690729891482376E-04

    mixed representation:                0.2348349844299714E-04


 Rotatory strength:

    velocity representation:              0.000000000000000    

    velocity rep. / 10^(-40)erg*cm^3:     0.000000000000000    

    length representation:                0.000000000000000    

    length rep. / 10^(-40)erg*cm^3:       0.000000000000000    


 Dominant contributions:

    occ. orbital  energy / eV   virt. orbital  energy / eV   |coeff.|^2*100
      14 a1        -12.37           4 b2         -2.12           55.7
       2 a2         -7.21          14 b1          2.42           18.5
      15 a1        -10.46           5 b2          0.01            9.3
       3 b2         -7.57          18 a1          2.06            7.6
 

 S^2 expectation value:                     2.00000000


 Change of electron number:

             0.000000


 Electric transition dipole moment (velocity rep.):

    x        0.000000        Norm:                  0.010037
    y       -0.010037
    z        0.000000        Norm / debye:          0.025511


 Electric transition dipole moment (length rep.):

    x        0.000000        Norm:                  0.011500
    y        0.011500
    z        0.000000        Norm / debye:          0.029231


 Magnetic transition dipole moment / i:

    x        0.000264        Norm:                  0.000264
    y        0.000000
    z        0.000000        Norm / Bohr mag.:      0.072425


 Electric quadrupole transition moment:

   xx        0.000000
   yy        0.000000        1/3*trace:             0.000000
   zz        0.000000
   xy        0.000000
   xz        0.000000        Anisotropy:            0.417087
   yz        0.240805




                         8 triplet b2 excitation


 Total energy:                           -417.3135411725071    

 Excitation energy:                      0.3076407409928770    

 Excitation energy / eV:                  8.371334081189534    

 Excitation energy / nm:                  148.1057174448002    

 Excitation energy / cm^(-1):             67519.33801768602    


 Oscillator strength:

    velocity representation:             0.2004679683985272E-02

    length representation:               0.2485668631376263E-02

    mixed representation:                0.2232256572717274E-02


 Rotatory strength:

    velocity representation:              0.000000000000000    

    velocity rep. / 10^(-40)erg*cm^3:     0.000000000000000    

    length representation:                0.000000000000000    

    length rep. / 10^(-40)erg*cm^3:       0.000000000000000    


 Dominant contributions:

    occ. orbital  energy / eV   virt. orbital  energy / eV   |coeff.|^2*100
       2 a2         -7.21          14 b1          2.42           65.5
      14 a1        -12.37           4 b2         -2.12           21.6
       3 b2         -7.57          17 a1          1.59            4.1
 

 S^2 expectation value:                     2.00000000


 Change of electron number:

             0.000000


 Electric transition dipole moment (velocity rep.):

    x        0.000000        Norm:                  0.098866
    y        0.098866
    z        0.000000        Norm / debye:          0.251294


 Electric transition dipole moment (length rep.):

    x        0.000000        Norm:                  0.110089
    y        0.110089
    z        0.000000        Norm / debye:          0.279821


 Magnetic transition dipole moment / i:

    x       -0.001527        Norm:                  0.001527
    y        0.000000
    z        0.000000        Norm / Bohr mag.:      0.418461


 Electric quadrupole transition moment:

   xx        0.000000
   yy        0.000000        1/3*trace:             0.000000
   zz        0.000000
   xy        0.000000
   xz        0.000000        Anisotropy:            1.844023
   yz        1.064647




                         9 triplet b2 excitation


 Total energy:                           -417.3104064328901    

 Excitation energy:                      0.3107754806098481    

 Excitation energy / eV:                  8.456634722796728    

 Excitation energy / nm:                  146.6118001670823    

 Excitation energy / cm^(-1):             68207.33383746141    


 Oscillator strength:

    velocity representation:             0.1971309592244453E-02

    length representation:               0.3726676995656829E-02

    mixed representation:                0.2710430613156339E-02


 Rotatory strength:

    velocity representation:              0.000000000000000    

    velocity rep. / 10^(-40)erg*cm^3:     0.000000000000000    

    length representation:                0.000000000000000    

    length rep. / 10^(-40)erg*cm^3:       0.000000000000000    


 Dominant contributions:

    occ. orbital  energy / eV   virt. orbital  energy / eV   |coeff.|^2*100
       3 b2         -7.57          18 a1          2.06           79.4
       2 a2         -7.21          14 b1          2.42            7.5
       3 b2         -7.57          19 a1          2.63            6.6
 

 S^2 expectation value:                     2.00000000


 Change of electron number:

             0.000000


 Electric transition dipole moment (velocity rep.):

    x        0.000000        Norm:                  0.097544
    y        0.097544
    z        0.000000        Norm / debye:          0.247933


 Electric transition dipole moment (length rep.):

    x        0.000000        Norm:                  0.134117
    y        0.134117
    z        0.000000        Norm / debye:          0.340893


 Magnetic transition dipole moment / i:

    x        0.001872        Norm:                  0.001872
    y        0.000000
    z        0.000000        Norm / Bohr mag.:      0.513178


 Electric quadrupole transition moment:

   xx        0.000000
   yy        0.000000        1/3*trace:             0.000000
   zz        0.000000
   xy        0.000000
   xz        0.000000        Anisotropy:            1.925054
   yz       -1.111430




                        10 triplet b2 excitation


 Total energy:                           -417.3010630495827    

 Excitation energy:                      0.3201188639172631    

 Excitation energy / eV:                  8.710881227542965    

 Excitation energy / nm:                  142.3326076521881    

 Excitation energy / cm^(-1):             70257.96943834487    


 Oscillator strength:

    velocity representation:             0.4362138989180805E-03

    length representation:               0.7718197461840906E-03

    mixed representation:                0.5802400371785158E-03


 Rotatory strength:

    velocity representation:              0.000000000000000    

    velocity rep. / 10^(-40)erg*cm^3:     0.000000000000000    

    length representation:                0.000000000000000    

    length rep. / 10^(-40)erg*cm^3:       0.000000000000000    


 Dominant contributions:

    occ. orbital  energy / eV   virt. orbital  energy / eV   |coeff.|^2*100
      15 a1        -10.46           5 b2          0.01           73.6
      14 a1        -12.37           4 b2         -2.12            7.5
       3 b2         -7.57          19 a1          2.63            3.9
      13 a1        -13.33           4 b2         -2.12            3.7
      11 b1        -12.15           3 a2         -0.85            2.0
 

 S^2 expectation value:                     2.00000000


 Change of electron number:

             0.000000


 Electric transition dipole moment (velocity rep.):

    x        0.000000        Norm:                  0.045211
    y        0.045211
    z        0.000000        Norm / debye:          0.114915


 Electric transition dipole moment (length rep.):

    x        0.000000        Norm:                  0.060138
    y        0.060138
    z        0.000000        Norm / debye:          0.152856


 Magnetic transition dipole moment / i:

    x       -0.001351        Norm:                  0.001351
    y        0.000000
    z        0.000000        Norm / Bohr mag.:      0.370188


 Electric quadrupole transition moment:

   xx        0.000000
   yy        0.000000        1/3*trace:             0.000000
   zz        0.000000
   xy        0.000000
   xz        0.000000        Anisotropy:            1.325044
   yz        0.765014


    ------------------------------------------------------------------------
         total  cpu-time : 46 minutes and 23 seconds
         total wall-time : 46 minutes and 23 seconds
    ------------------------------------------------------------------------


   ****  escf : all done  ****


    2024-02-13 10:57:43.805 

