 DBCSR| CPU Multiplication driver                                           XSMM (U)
 DBCSR| Multrec recursion limit                                              512 (U)
 DBCSR| Multiplication stack size                                           1000 (D)
 DBCSR| Maximum elements for images                                    UNLIMITED (U)
 DBCSR| Multiplicative factor virtual images                                   1 (U)
 DBCSR| Use multiplication densification                                       T (D)
 DBCSR| Multiplication size stacks                                             3 (U)
 DBCSR| Use memory pool for CPU allocation                                     F (U)
 DBCSR| Number of 3D layers                                               SINGLE (U)
 DBCSR| Use MPI memory allocation                                              F (U)
 DBCSR| Use RMA algorithm                                                      F (U)
 DBCSR| Use Communication thread                                               T (U)
 DBCSR| Communication thread load                                             83 (D)
 DBCSR| MPI: My process id                                                     0
 DBCSR| MPI: Number of processes                                              64
 DBCSR| OMP: Current number of threads                                         2
 DBCSR| OMP: Max number of threads                                             2
 DBCSR| Split modifier for TAS multiplication algorithm                  1.0E+00 (U)


  **** **** ******  **  PROGRAM STARTED AT               2023-12-05 17:11:28.470
 ***** ** ***  *** **   PROGRAM STARTED ON                           nesh-clk522
 **    ****   ******    PROGRAM STARTED BY                              suphc355
 ***** **    ** ** **   PROGRAM PROCESS ID                               1516909
  **** **  *******  **  PROGRAM STARTED IN /gxfs_work/cau/suphc355/homologes/H2X
                                           /AE/O

 CP2K| version string:                 CP2K version 2023.2 (Development Version)
 CP2K| source code revision number:                                  git:845a3ae
 CP2K| cp2kflags: omp libint fftw3 libxc parallel mpi_f08 scalapack cosma xsmm s
 CP2K|            pglib mkl
 CP2K| is freely available from                            https://www.cp2k.org/
 CP2K| Program compiled at                           Fr 1. Dez 12:58:35 CET 2023
 CP2K| Program compiled on                                           nesh-login3
 CP2K| Program compiled for                                                local
 CP2K| Data directory path            /gxfs_home/cau/suphc355/software/cp2k/data
 CP2K| Input file name                                                    AE.inp
 
 GLOBAL| Force Environment number                                              1
 GLOBAL| Basis set file name                                     EMSL_BASIS_SETS
 GLOBAL| Potential file name                                           POTENTIAL
 GLOBAL| MM Potential file name                                     MM_POTENTIAL
 GLOBAL| Coordinate file name                                            opt.xyz
 GLOBAL| Method name                                                        CP2K
 GLOBAL| Project name                                                     H2O_AE
 GLOBAL| Run type                                                         ENERGY
 GLOBAL| FFT library                                                       FFTW3
 GLOBAL| Diagonalization library                                       ScaLAPACK
 GLOBAL| DGEMM library                                                      BLAS
 GLOBAL| Orthonormality check for eigenvectors                          DISABLED
 GLOBAL| Matrix multiplication library                                     COSMA
 GLOBAL| All-to-all communication in single precision                          F
 GLOBAL| FFTs using library dependent lengths                                  F
 GLOBAL| Grid backend                                                       AUTO
 GLOBAL| Global print level                                               MEDIUM
 GLOBAL| MPI I/O enabled                                                       T
 GLOBAL| Total number of message passing processes                            64
 GLOBAL| Number of threads for this process                                    2
 GLOBAL| This output is from process                                           0
 GLOBAL| Stack size for threads created by OpenMP (OMP_STACKSIZE)        default
 GLOBAL| CPU model name                Intel(R) Xeon(R) Gold 6226R CPU @ 2.90GHz
 GLOBAL| CPUID                                                              1003

 MEMORY| system memory details [Kb]
 MEMORY|                        rank 0           min           max       average
 MEMORY| MemTotal            196683224     196683224     196683224     196683224
 MEMORY| MemFree             176438972     175775328     176438972     176107155
 MEMORY| Buffers                739948        739948        933000        836474
 MEMORY| Cached                1061852       1061852       1316936       1189394
 MEMORY| Slab                   641800        641800        836744        739272
 MEMORY| SReclaimable           220180        220180        311208        265694
 MEMORY| MemLikelyFree       178460952     178336472     178460952     178398717


 *** Fundamental physical constants (SI units) ***

 *** Literature: B. J. Mohr and B. N. Taylor,
 ***             CODATA recommended values of the fundamental physical
 ***             constants: 2006, Web Version 5.1
 ***             http://physics.nist.gov/constants

 Speed of light in vacuum [m/s]                             2.99792458000000E+08
 Magnetic constant or permeability of vacuum [N/A**2]       1.25663706143592E-06
 Electric constant or permittivity of vacuum [F/m]          8.85418781762039E-12
 Planck constant (h) [J*s]                                  6.62606896000000E-34
 Planck constant (h-bar) [J*s]                              1.05457162825177E-34
 Elementary charge [C]                                      1.60217648700000E-19
 Electron mass [kg]                                         9.10938215000000E-31
 Electron g factor [ ]                                     -2.00231930436220E+00
 Proton mass [kg]                                           1.67262163700000E-27
 Fine-structure constant                                    7.29735253760000E-03
 Rydberg constant [1/m]                                     1.09737315685270E+07
 Avogadro constant [1/mol]                                  6.02214179000000E+23
 Boltzmann constant [J/K]                                   1.38065040000000E-23
 Atomic mass unit [kg]                                      1.66053878200000E-27
 Bohr radius [m]                                            5.29177208590000E-11

 *** Conversion factors ***

 [u] -> [a.u.]                                              1.82288848426455E+03
 [Angstrom] -> [Bohr] = [a.u.]                              1.88972613288564E+00
 [a.u.] = [Bohr] -> [Angstrom]                              5.29177208590000E-01
 [a.u.] -> [s]                                              2.41888432650478E-17
 [a.u.] -> [fs]                                             2.41888432650478E-02
 [a.u.] -> [J]                                              4.35974393937059E-18
 [a.u.] -> [N]                                              8.23872205491840E-08
 [a.u.] -> [K]                                              3.15774647902944E+05
 [a.u.] -> [kJ/mol]                                         2.62549961709828E+03
 [a.u.] -> [kcal/mol]                                       6.27509468713739E+02
 [a.u.] -> [Pa]                                             2.94210107994716E+13
 [a.u.] -> [bar]                                            2.94210107994716E+08
 [a.u.] -> [atm]                                            2.90362800883016E+08
 [a.u.] -> [eV]                                             2.72113838565563E+01
 [a.u.] -> [Hz]                                             6.57968392072181E+15
 [a.u.] -> [1/cm] (wave numbers)                            2.19474631370540E+05
 [a.u./Bohr**2] -> [1/cm]                                   5.14048714338585E+03
 

 CELL_TOP| Volume [angstrom^3]:                                       512.000000
 CELL_TOP| Vector a [angstrom     8.000     0.000     0.000   |a| =     8.000000
 CELL_TOP| Vector b [angstrom     0.000     8.000     0.000   |b| =     8.000000
 CELL_TOP| Vector c [angstrom     0.000     0.000     8.000   |c| =     8.000000
 CELL_TOP| Angle (b,c), alpha [degree]:                                90.000000
 CELL_TOP| Angle (a,c), beta  [degree]:                                90.000000
 CELL_TOP| Angle (a,b), gamma [degree]:                                90.000000
 CELL_TOP| Numerically orthorhombic:                                         YES
 CELL_TOP| Periodicity                                                      NONE
 
 GENERATE|  Preliminary Number of Bonds generated:                             0
 GENERATE|  Achieved consistency in connectivity generation.

 CELL| Volume [angstrom^3]:                                           512.000000
 CELL| Vector a [angstrom]:       8.000     0.000     0.000   |a| =     8.000000
 CELL| Vector b [angstrom]:       0.000     8.000     0.000   |b| =     8.000000
 CELL| Vector c [angstrom]:       0.000     0.000     8.000   |c| =     8.000000
 CELL| Angle (b,c), alpha [degree]:                                    90.000000
 CELL| Angle (a,c), beta  [degree]:                                    90.000000
 CELL| Angle (a,b), gamma [degree]:                                    90.000000
 CELL| Numerically orthorhombic:                                             YES
 CELL| Periodicity                                                          NONE

 CELL_REF| Volume [angstrom^3]:                                       512.000000
 CELL_REF| Vector a [angstrom     8.000     0.000     0.000   |a| =     8.000000
 CELL_REF| Vector b [angstrom     0.000     8.000     0.000   |b| =     8.000000
 CELL_REF| Vector c [angstrom     0.000     0.000     8.000   |c| =     8.000000
 CELL_REF| Angle (b,c), alpha [degree]:                                90.000000
 CELL_REF| Angle (a,c), beta  [degree]:                                90.000000
 CELL_REF| Angle (a,b), gamma [degree]:                                90.000000
 CELL_REF| Numerically orthorhombic:                                         YES
 CELL_REF| Periodicity                                                      NONE

 *******************************************************************************
 *   ___                                                                       *
 *  /   \                                                                      *
 * [ABORT]                                                                     *
 *  \___/    The requested basis set <DEF2-TZVP> for element <H> was not found *
 *    |                  in the basis set files <EMSL_BASIS_SETS>              *
 *  O/|                                                                        *
 * /| |                                                                        *
 * / \                                          aobasis/basis_set_types.F:1438 *
 *******************************************************************************


 ===== Routine Calling Stack ===== 

            3 read_qs_kind
            2 create_qs_kind_set
            1 CP2K
 DBCSR| CPU Multiplication driver                                           XSMM (U)
 DBCSR| Multrec recursion limit                                              512 (U)
 DBCSR| Multiplication stack size                                           1000 (D)
 DBCSR| Maximum elements for images                                    UNLIMITED (U)
 DBCSR| Multiplicative factor virtual images                                   1 (U)
 DBCSR| Use multiplication densification                                       T (D)
 DBCSR| Multiplication size stacks                                             3 (U)
 DBCSR| Use memory pool for CPU allocation                                     F (U)
 DBCSR| Number of 3D layers                                               SINGLE (U)
 DBCSR| Use MPI memory allocation                                              F (U)
 DBCSR| Use RMA algorithm                                                      F (U)
 DBCSR| Use Communication thread                                               T (U)
 DBCSR| Communication thread load                                             83 (D)
 DBCSR| MPI: My process id                                                     0
 DBCSR| MPI: Number of processes                                              64
 DBCSR| OMP: Current number of threads                                         2
 DBCSR| OMP: Max number of threads                                             2
 DBCSR| Split modifier for TAS multiplication algorithm                  1.0E+00 (U)


  **** **** ******  **  PROGRAM STARTED AT               2023-12-05 17:13:48.119
 ***** ** ***  *** **   PROGRAM STARTED ON                           nesh-clk522
 **    ****   ******    PROGRAM STARTED BY                              suphc355
 ***** **    ** ** **   PROGRAM PROCESS ID                               1517763
  **** **  *******  **  PROGRAM STARTED IN /gxfs_work/cau/suphc355/homologes/H2X
                                           /AE/O

 CP2K| version string:                 CP2K version 2023.2 (Development Version)
 CP2K| source code revision number:                                  git:845a3ae
 CP2K| cp2kflags: omp libint fftw3 libxc parallel mpi_f08 scalapack cosma xsmm s
 CP2K|            pglib mkl
 CP2K| is freely available from                            https://www.cp2k.org/
 CP2K| Program compiled at                           Fr 1. Dez 12:58:35 CET 2023
 CP2K| Program compiled on                                           nesh-login3
 CP2K| Program compiled for                                                local
 CP2K| Data directory path            /gxfs_home/cau/suphc355/software/cp2k/data
 CP2K| Input file name                                                    AE.inp
 
 GLOBAL| Force Environment number                                              1
 GLOBAL| Basis set file name                                   ../../../basis_ae
 GLOBAL| Potential file name                                           POTENTIAL
 GLOBAL| MM Potential file name                                     MM_POTENTIAL
 GLOBAL| Coordinate file name                                            opt.xyz
 GLOBAL| Method name                                                        CP2K
 GLOBAL| Project name                                                     H2O_AE
 GLOBAL| Run type                                                         ENERGY
 GLOBAL| FFT library                                                       FFTW3
 GLOBAL| Diagonalization library                                       ScaLAPACK
 GLOBAL| DGEMM library                                                      BLAS
 GLOBAL| Orthonormality check for eigenvectors                          DISABLED
 GLOBAL| Matrix multiplication library                                     COSMA
 GLOBAL| All-to-all communication in single precision                          F
 GLOBAL| FFTs using library dependent lengths                                  F
 GLOBAL| Grid backend                                                       AUTO
 GLOBAL| Global print level                                               MEDIUM
 GLOBAL| MPI I/O enabled                                                       T
 GLOBAL| Total number of message passing processes                            64
 GLOBAL| Number of threads for this process                                    2
 GLOBAL| This output is from process                                           0
 GLOBAL| Stack size for threads created by OpenMP (OMP_STACKSIZE)        default
 GLOBAL| CPU model name                Intel(R) Xeon(R) Gold 6226R CPU @ 2.90GHz
 GLOBAL| CPUID                                                              1003

 MEMORY| system memory details [Kb]
 MEMORY|                        rank 0           min           max       average
 MEMORY| MemTotal            196683224     196683224     196683224     196683224
 MEMORY| MemFree             176445664     175744824     176446224     176095501
 MEMORY| Buffers                740016        740016        933028        836522
 MEMORY| Cached                1061948       1061948       1319672       1190810
 MEMORY| Slab                   645540        645540        841292        743416
 MEMORY| SReclaimable           219292        219292        311036        265164
 MEMORY| MemLikelyFree       178466920     178308560     178467480     178387997


 *** Fundamental physical constants (SI units) ***

 *** Literature: B. J. Mohr and B. N. Taylor,
 ***             CODATA recommended values of the fundamental physical
 ***             constants: 2006, Web Version 5.1
 ***             http://physics.nist.gov/constants

 Speed of light in vacuum [m/s]                             2.99792458000000E+08
 Magnetic constant or permeability of vacuum [N/A**2]       1.25663706143592E-06
 Electric constant or permittivity of vacuum [F/m]          8.85418781762039E-12
 Planck constant (h) [J*s]                                  6.62606896000000E-34
 Planck constant (h-bar) [J*s]                              1.05457162825177E-34
 Elementary charge [C]                                      1.60217648700000E-19
 Electron mass [kg]                                         9.10938215000000E-31
 Electron g factor [ ]                                     -2.00231930436220E+00
 Proton mass [kg]                                           1.67262163700000E-27
 Fine-structure constant                                    7.29735253760000E-03
 Rydberg constant [1/m]                                     1.09737315685270E+07
 Avogadro constant [1/mol]                                  6.02214179000000E+23
 Boltzmann constant [J/K]                                   1.38065040000000E-23
 Atomic mass unit [kg]                                      1.66053878200000E-27
 Bohr radius [m]                                            5.29177208590000E-11

 *** Conversion factors ***

 [u] -> [a.u.]                                              1.82288848426455E+03
 [Angstrom] -> [Bohr] = [a.u.]                              1.88972613288564E+00
 [a.u.] = [Bohr] -> [Angstrom]                              5.29177208590000E-01
 [a.u.] -> [s]                                              2.41888432650478E-17
 [a.u.] -> [fs]                                             2.41888432650478E-02
 [a.u.] -> [J]                                              4.35974393937059E-18
 [a.u.] -> [N]                                              8.23872205491840E-08
 [a.u.] -> [K]                                              3.15774647902944E+05
 [a.u.] -> [kJ/mol]                                         2.62549961709828E+03
 [a.u.] -> [kcal/mol]                                       6.27509468713739E+02
 [a.u.] -> [Pa]                                             2.94210107994716E+13
 [a.u.] -> [bar]                                            2.94210107994716E+08
 [a.u.] -> [atm]                                            2.90362800883016E+08
 [a.u.] -> [eV]                                             2.72113838565563E+01
 [a.u.] -> [Hz]                                             6.57968392072181E+15
 [a.u.] -> [1/cm] (wave numbers)                            2.19474631370540E+05
 [a.u./Bohr**2] -> [1/cm]                                   5.14048714338585E+03
 

 CELL_TOP| Volume [angstrom^3]:                                       512.000000
 CELL_TOP| Vector a [angstrom     8.000     0.000     0.000   |a| =     8.000000
 CELL_TOP| Vector b [angstrom     0.000     8.000     0.000   |b| =     8.000000
 CELL_TOP| Vector c [angstrom     0.000     0.000     8.000   |c| =     8.000000
 CELL_TOP| Angle (b,c), alpha [degree]:                                90.000000
 CELL_TOP| Angle (a,c), beta  [degree]:                                90.000000
 CELL_TOP| Angle (a,b), gamma [degree]:                                90.000000
 CELL_TOP| Numerically orthorhombic:                                         YES
 CELL_TOP| Periodicity                                                      NONE
 
 GENERATE|  Preliminary Number of Bonds generated:                             0
 GENERATE|  Achieved consistency in connectivity generation.

 CELL| Volume [angstrom^3]:                                           512.000000
 CELL| Vector a [angstrom]:       8.000     0.000     0.000   |a| =     8.000000
 CELL| Vector b [angstrom]:       0.000     8.000     0.000   |b| =     8.000000
 CELL| Vector c [angstrom]:       0.000     0.000     8.000   |c| =     8.000000
 CELL| Angle (b,c), alpha [degree]:                                    90.000000
 CELL| Angle (a,c), beta  [degree]:                                    90.000000
 CELL| Angle (a,b), gamma [degree]:                                    90.000000
 CELL| Numerically orthorhombic:                                             YES
 CELL| Periodicity                                                          NONE

 CELL_REF| Volume [angstrom^3]:                                       512.000000
 CELL_REF| Vector a [angstrom     8.000     0.000     0.000   |a| =     8.000000
 CELL_REF| Vector b [angstrom     0.000     8.000     0.000   |b| =     8.000000
 CELL_REF| Vector c [angstrom     0.000     0.000     8.000   |c| =     8.000000
 CELL_REF| Angle (b,c), alpha [degree]:                                90.000000
 CELL_REF| Angle (a,c), beta  [degree]:                                90.000000
 CELL_REF| Angle (a,b), gamma [degree]:                                90.000000
 CELL_REF| Numerically orthorhombic:                                         YES
 CELL_REF| Periodicity                                                      NONE

 *******************************************************************************
 *******************************************************************************
 **                                                                           **
 **     #####                         ##              ##                      **
 **    ##   ##            ##          ##              ##                      **
 **   ##     ##                       ##            ######                    **
 **   ##     ##  ##   ##  ##   #####  ##  ##   ####   ##    #####    #####    **
 **   ##     ##  ##   ##  ##  ##      ## ##   ##      ##   ##   ##  ##   ##   **
 **   ##  ## ##  ##   ##  ##  ##      ####     ###    ##   ######   ######    **
 **    ##  ###   ##   ##  ##  ##      ## ##      ##   ##   ##       ##        **
 **     #######   #####   ##   #####  ##  ##  ####    ##    #####   ##        **
 **           ##                                                    ##        **
 **                                                                           **
 **                                                ... make the atoms dance   **
 **                                                                           **
 **            Copyright (C) by CP2K developers group (2000-2023)             **
 **                      J. Chem. Phys. 152, 194103 (2020)                    **
 **                                                                           **
 *******************************************************************************

 DFT| Spin restricted Kohn-Sham (RKS) calculation                            RKS
 DFT| Multiplicity                                                             1
 DFT| Number of spin states                                                    1
 DFT| Charge                                                                   0
 DFT| Self-interaction correction (SIC)                                       NO
 DFT| Cutoffs: density                                              1.000000E-10
 DFT|          gradient                                             1.000000E-10
 DFT|          tau                                                  1.000000E-10
 DFT|          cutoff_smoothing_range                               0.000000E+00
 DFT| XC density smoothing                                                  NONE
 DFT| XC derivatives                                                          PW

 FUNCTIONAL| PBE:
 FUNCTIONAL| J.P.Perdew, K.Burke, M.Ernzerhof, Phys. Rev. Letter, vol. 77, n 18,
 FUNCTIONAL|  pp. 3865-3868, (1996) {spin unpolarized}                          


 QS| Method:                                                                GAPW
 QS| Density plane wave grid type                        NON-SPHERICAL FULLSPACE
 QS| Number of grid levels:                                                    5
 QS| Density cutoff [a.u.]:                                                600.0
 QS| Multi grid cutoff [a.u.]: 1) grid level                               600.0
 QS|                           2) grid level                               200.0
 QS|                           3) grid level                                66.7
 QS|                           4) grid level                                22.2
 QS|                           5) grid level                                 7.4
 QS| Grid level progression factor:                                          3.0
 QS| Relative density cutoff [a.u.]:                                        40.0
 QS| Interaction thresholds: eps_pgf_orb:                                1.0E-30
 QS|                         eps_filter_matrix:                          0.0E+00
 QS|                         eps_core_charge:                            1.0E-17
 QS|                         eps_rho_gspace:                             1.0E-15
 QS|                         eps_rho_rspace:                             1.0E-15
 QS|                         eps_gvg_rspace:                             3.2E-08
 QS|                         eps_ppl:                                    1.0E-02
 QS|                         eps_ppnl:                                   3.2E-10
 QS| GAPW|      One center basis from orbital basis primitives
 QS| GAPW|                   eps_fit:                                    1.0E-04
 QS| GAPW|                   eps_iso:                                    1.0E-12
 QS| GAPW|                   eps_svd:                                    1.0E-08
 QS| GAPW|                   eps_cpc:                                    1.0E-15
 QS| GAPW|   atom-r-grid: quadrature:                                     GC_LOG
 QS| GAPW|      atom-s-grid:  max l :                                          6
 QS| GAPW|      max_l_rho0 :                                                   2


 ATOMIC KIND INFORMATION

  1. Atomic kind: H                                     Number of atoms:       2

     Orbital Basis Set                                                 def2-TZVP

       Number of orbital shell sets:                                           4
       Number of orbital shells:                                               4
       Number of primitive Cartesian functions:                                6
       Number of Cartesian basis functions:                                    6
       Number of spherical basis functions:                                    6
       Norm type:                                                              2

       Normalised Cartesian orbitals:

                        Set   Shell   Orbital            Exponent    Coefficient

                          1       1    1s               34.061341       0.255630
                                                         5.123575       0.461360
                                                         1.164663       0.681121

                          2       1    1s                0.327230       0.308355

                          3       1    1s                0.103072       0.129648

                          4       1    1px               0.800000       1.078456
                          4       1    1py               0.800000       1.078456
                          4       1    1pz               0.800000       1.078456

       Atomic covalent radius [Angstrom]:                                  0.320

       Atomic van der Waals radius [Angstrom]:                             1.090

     The atoms of this atomic kind are PAW atoms (GAPW):
       Hard Gaussian function radius:                                      1.200
       Rho0 radius:                                                        1.200
       Maximum GTO radius used for PAW projector construction:            24.566

     GAPW Soft Basis Set                                          def2-TZVP_soft

       Number of orbital shell sets:                                           4
       Number of orbital shells:                                               4
       Number of primitive Cartesian functions:                                5
       Number of Cartesian basis functions:                                    6
       Number of spherical basis functions:                                    6
       Norm type:                                                              2

       Normalised Cartesian orbitals:

                        Set   Shell   Orbital            Exponent    Coefficient

                          1       1    1s                5.123575       0.461360
                                                         1.164663       0.681121

                          2       1    1s                0.327230       0.308355

                          3       1    1s                0.103072       0.129648

                          4       1    1px               0.800000       1.078456
                          4       1    1py               0.800000       1.078456
                          4       1    1pz               0.800000       1.078456

     AE Potential information for                                            ALL

       Description:                                       All-electron potential
                                          Krack, Parrinello, PCCP 2, 2105 (2000)

       Gaussian exponent of the core charge distribution:              12.500000
       Electronic configuration (s p d ...):                           1   0   0

  2. Atomic kind: O                                     Number of atoms:       1

     Orbital Basis Set                                                 def2-TZVP

       Number of orbital shell sets:                                          11
       Number of orbital shells:                                              11
       Number of primitive Cartesian functions:                               20
       Number of Cartesian basis functions:                                   36
       Number of spherical basis functions:                                   31
       Norm type:                                                              2

       Normalised Cartesian orbitals:

                        Set   Shell   Orbital            Exponent    Coefficient

                          1       1    1s            27032.382631       0.859858
                                                      4052.387139       1.605531
                                                       922.327227       2.745878
                                                       261.240710       4.298767
                                                        85.354641       5.879766
                                                        31.035035       6.316398

                          2       1    1s               12.260861       2.981215
                                                         4.998708       0.941956

                          3       1    1s                1.170311       0.801929

                          4       1    1s                0.464747       0.401165

                          5       1    1s                0.185045       0.201080

                          6       1    1px              63.274955       3.057202
                                                        14.627049       3.384484
                                                         4.450122       2.947426
                                                         1.527580       1.711827
                          6       1    1py              63.274955       3.057202
                                                        14.627049       3.384484
                                                         4.450122       2.947426
                                                         1.527580       1.711827
                          6       1    1pz              63.274955       3.057202
                                                        14.627049       3.384484
                                                         4.450122       2.947426
                                                         1.527580       1.711827

                          7       1    1px               0.529351       0.643606
                          7       1    1py               0.529351       0.643606
                          7       1    1pz               0.529351       0.643606

                          8       1    1px               0.174784       0.161090
                          8       1    1py               0.174784       0.161090
                          8       1    1pz               0.174784       0.161090

                          9       1    1dx2              2.314000       7.145709
                          9       1    1dxy              2.314000      12.376731
                          9       1    1dxz              2.314000      12.376731
                          9       1    1dy2              2.314000       7.145709
                          9       1    1dyz              2.314000      12.376731
                          9       1    1dz2              2.314000       7.145709

                         10       1    1dx2              0.645000       0.764080
                         10       1    1dxy              0.645000       1.323426
                         10       1    1dxz              0.645000       1.323426
                         10       1    1dy2              0.645000       0.764080
                         10       1    1dyz              0.645000       1.323426
                         10       1    1dz2              0.645000       0.764080

                         11       1    1fx3              1.428000       3.281655
                         11       1    1fx2y             1.428000       7.338004
                         11       1    1fx2z             1.428000       7.338004
                         11       1    1fxy2             1.428000       7.338004
                         11       1    1fxyz             1.428000      12.709795
                         11       1    1fxz2             1.428000       7.338004
                         11       1    1fy3              1.428000       3.281655
                         11       1    1fy2z             1.428000       7.338004
                         11       1    1fyz2             1.428000       7.338004
                         11       1    1fz3              1.428000       3.281655

       Atomic covalent radius [Angstrom]:                                  0.730

       Atomic van der Waals radius [Angstrom]:                             1.520

     The atoms of this atomic kind are PAW atoms (GAPW):
       Hard Gaussian function radius:                                      1.512
       Rho0 radius:                                                        1.512
       Maximum GTO radius used for PAW projector construction:            24.566

     GAPW Soft Basis Set                                          def2-TZVP_soft

       Number of orbital shell sets:                                          11
       Number of orbital shells:                                              11
       Number of primitive Cartesian functions:                                9
       Number of Cartesian basis functions:                                   36
       Number of spherical basis functions:                                   31
       Norm type:                                                              2

       Normalised Cartesian orbitals:

                        Set   Shell   Orbital            Exponent    Coefficient

                          1       1    1s         

                          2       1    1s         

                          3       1    1s                1.170311       0.801929

                          4       1    1s                0.464747       0.401165

                          5       1    1s                0.185045       0.201080

                          6       1    1px               1.527580       1.711827
                          6       1    1py               1.527580       1.711827
                          6       1    1pz               1.527580       1.711827

                          7       1    1px               0.529351       0.643606
                          7       1    1py               0.529351       0.643606
                          7       1    1pz               0.529351       0.643606

                          8       1    1px               0.174784       0.161090
                          8       1    1py               0.174784       0.161090
                          8       1    1pz               0.174784       0.161090

                          9       1    1dx2              2.314000       7.145709
                          9       1    1dxy              2.314000      12.376731
                          9       1    1dxz              2.314000      12.376731
                          9       1    1dy2              2.314000       7.145709
                          9       1    1dyz              2.314000      12.376731
                          9       1    1dz2              2.314000       7.145709

                         10       1    1dx2              0.645000       0.764080
                         10       1    1dxy              0.645000       1.323426
                         10       1    1dxz              0.645000       1.323426
                         10       1    1dy2              0.645000       0.764080
                         10       1    1dyz              0.645000       1.323426
                         10       1    1dz2              0.645000       0.764080

                         11       1    1fx3              1.428000       3.281655
                         11       1    1fx2y             1.428000       7.338004
                         11       1    1fx2z             1.428000       7.338004
                         11       1    1fxy2             1.428000       7.338004
                         11       1    1fxyz             1.428000      12.709795
                         11       1    1fxz2             1.428000       7.338004
                         11       1    1fy3              1.428000       3.281655
                         11       1    1fy2z             1.428000       7.338004
                         11       1    1fyz2             1.428000       7.338004
                         11       1    1fz3              1.428000       3.281655

     AE Potential information for                                            ALL

       Description:                                       All-electron potential
                                          Krack, Parrinello, PCCP 2, 2105 (2000)

       Gaussian exponent of the core charge distribution:               8.154466
       Electronic configuration (s p d ...):                           4   4   0


 MOLECULE KIND INFORMATION


 All atoms are their own molecule, skipping detailed information


 TOTAL NUMBERS AND MAXIMUM NUMBERS

  Total number of            - Atomic kinds:                                   2
                             - Atoms:                                          3
                             - Shell sets:                                    19
                             - Shells:                                        19
                             - Primitive Cartesian functions:                 32
                             - Cartesian basis functions:                     48
                             - Spherical basis functions:                     43

  Maximum angular momentum of the orbital basis functions:                     3


 MODULE QUICKSTEP: ATOMIC COORDINATES IN ANGSTROM

   Atom Kind Element         X             Y             Z       Z(eff)     Mass
      1    1 H     1      4.765254      4.000000      4.298513   1.0000   1.0079
      2    1 H     1      3.234746      4.000000      4.298513   1.0000   1.0079
      3    2 O     8      4.000000      4.000000      3.701487   8.0000  15.9994



 SCF PARAMETERS         Density guess:                                    ATOMIC
                        --------------------------------------------------------
                        max_scf:                                              20
                        max_scf_history:                                       0
                        max_diis:                                              4
                        --------------------------------------------------------
                        eps_scf:                                        1.00E-07
                        eps_scf_history:                                0.00E+00
                        eps_diis:                                       1.00E-01
                        eps_eigval:                                     1.00E-05
                        --------------------------------------------------------
                        level_shift [a.u.]:                             0.000000
                        --------------------------------------------------------
                        Outer loop SCF in use 
                        No variables optimised in outer loop
                        eps_scf                                         1.00E-07
                        max_scf                                               50
                        No outer loop optimization
                        step_size                                       5.00E-01

 PW_GRID| Information for grid number                                          1
 PW_GRID| Grid distributed over                                    64 processors
 PW_GRID| Real space group dimensions                                    64    1
 PW_GRID| the grid is blocked:                                                NO
 PW_GRID| Cutoff [a.u.]                                                   1200.0
 PW_GRID| spherical cutoff:                                                   NO
 PW_GRID|   Bounds   1           -120     119                Points:         240
 PW_GRID|   Bounds   2           -120     119                Points:         240
 PW_GRID|   Bounds   3           -120     119                Points:         240
 PW_GRID| Volume element (a.u.^3)  0.2499E-03     Volume (a.u.^3)      3455.1473
 PW_GRID| Grid span                                                    FULLSPACE
 PW_GRID|   Distribution                         Average         Max         Min
 PW_GRID|   G-Vectors                           216000.0      216000      216000
 PW_GRID|   G-Rays                                 900.0         900         900
 PW_GRID|   Real Space Points                   216000.0      230400      172800

 PW_GRID| Information for grid number                                          2
 PW_GRID| Number of the reference grid                                         1
 PW_GRID| Grid distributed over                                    64 processors
 PW_GRID| Real space group dimensions                                    64    1
 PW_GRID| the grid is blocked:                                                NO
 PW_GRID| Cutoff [a.u.]                                                    600.0
 PW_GRID| spherical cutoff:                                                   NO
 PW_GRID|   Bounds   1            -90      89                Points:         180
 PW_GRID|   Bounds   2            -90      89                Points:         180
 PW_GRID|   Bounds   3            -90      89                Points:         180
 PW_GRID| Volume element (a.u.^3)  0.5924E-03     Volume (a.u.^3)      3455.1473
 PW_GRID| Grid span                                                    FULLSPACE
 PW_GRID|   Distribution                         Average         Max         Min
 PW_GRID|   G-Vectors                            91125.0       91440       90720
 PW_GRID|   G-Rays                                 506.2         508         504
 PW_GRID|   Real Space Points                    91125.0       97200       64800

 PW_GRID| Information for grid number                                          3
 PW_GRID| Number of the reference grid                                         2
 PW_GRID| Grid distributed over                                    64 processors
 PW_GRID| Real space group dimensions                                    64    1
 PW_GRID| the grid is blocked:                                                NO
 PW_GRID| Cutoff [a.u.]                                                    200.0
 PW_GRID| spherical cutoff:                                                   NO
 PW_GRID|   Bounds   1            -50      49                Points:         100
 PW_GRID|   Bounds   2            -50      49                Points:         100
 PW_GRID|   Bounds   3            -50      49                Points:         100
 PW_GRID| Volume element (a.u.^3)  0.3455E-02     Volume (a.u.^3)      3455.1473
 PW_GRID| Grid span                                                    FULLSPACE
 PW_GRID|   Distribution                         Average         Max         Min
 PW_GRID|   G-Vectors                            15625.0       15800       15500
 PW_GRID|   G-Rays                                 156.2         158         155
 PW_GRID|   Real Space Points                    15625.0       20000       10000

 PW_GRID| Information for grid number                                          4
 PW_GRID| Number of the reference grid                                         2
 PW_GRID| Grid distributed over                                    64 processors
 PW_GRID| Real space group dimensions                                     8    8
 PW_GRID| the grid is blocked:                                                NO
 PW_GRID| Cutoff [a.u.]                                                     66.7
 PW_GRID| spherical cutoff:                                                   NO
 PW_GRID|   Bounds   1            -30      29                Points:          60
 PW_GRID|   Bounds   2            -30      29                Points:          60
 PW_GRID|   Bounds   3            -30      29                Points:          60
 PW_GRID| Volume element (a.u.^3)  0.1600E-01     Volume (a.u.^3)      3455.1473
 PW_GRID| Grid span                                                    FULLSPACE
 PW_GRID|   Distribution                         Average         Max         Min
 PW_GRID|   G-Vectors                             3375.0        3540        3240
 PW_GRID|   G-Rays                                  56.2          59          54
 PW_GRID|   Real Space Points                     3375.0        3840        2940

 PW_GRID| Information for grid number                                          5
 PW_GRID| Number of the reference grid                                         2
 PW_GRID| Grid distributed over                                    64 processors
 PW_GRID| Real space group dimensions                                     8    8
 PW_GRID| the grid is blocked:                                                NO
 PW_GRID| Cutoff [a.u.]                                                     22.2
 PW_GRID| spherical cutoff:                                                   NO
 PW_GRID|   Bounds   1            -18      17                Points:          36
 PW_GRID|   Bounds   2            -18      17                Points:          36
 PW_GRID|   Bounds   3            -18      17                Points:          36
 PW_GRID| Volume element (a.u.^3)  0.7406E-01     Volume (a.u.^3)      3455.1473
 PW_GRID| Grid span                                                    FULLSPACE
 PW_GRID|   Distribution                         Average         Max         Min
 PW_GRID|   G-Vectors                              729.0         792         684
 PW_GRID|   G-Rays                                  20.2          22          19
 PW_GRID|   Real Space Points                      729.0         900         576

 PW_GRID| Information for grid number                                          6
 PW_GRID| Number of the reference grid                                         2
 PW_GRID| Grid distributed over                                    64 processors
 PW_GRID| Real space group dimensions                                     8    8
 PW_GRID| the grid is blocked:                                                NO
 PW_GRID| Cutoff [a.u.]                                                      7.4
 PW_GRID| spherical cutoff:                                                   NO
 PW_GRID|   Bounds   1            -10       9                Points:          20
 PW_GRID|   Bounds   2            -10       9                Points:          20
 PW_GRID|   Bounds   3            -10       9                Points:          20
 PW_GRID| Volume element (a.u.^3)  0.4319         Volume (a.u.^3)      3455.1473
 PW_GRID| Grid span                                                    FULLSPACE
 PW_GRID|   Distribution                         Average         Max         Min
 PW_GRID|   G-Vectors                              125.0         140         100
 PW_GRID|   G-Rays                                   6.2           7           5
 PW_GRID|   Real Space Points                      125.0         180          80

 POISSON| Solver                                          Martyna-Tuckerman (MT)
 POISSON| MT| Alpha                                                        7.000
 POISSON| MT| Relative cutoff                                                2.0
 POISSON| Periodicity                                                       NONE

 RS_GRID| Information for grid number                                          2
 RS_GRID|   Bounds   1            -90      89                Points:         180
 RS_GRID|   Bounds   2            -90      89                Points:         180
 RS_GRID|   Bounds   3            -90      89                Points:         180
 RS_GRID| Real space distribution over                                  8 groups
 RS_GRID| Real space distribution along direction                              2
 RS_GRID| Border size                                                         35
 RS_GRID| Real space distribution over                                  8 groups
 RS_GRID| Real space distribution along direction                              3
 RS_GRID| Border size                                                         35
 RS_GRID|   Distribution                         Average         Max         Min
 RS_GRID|   Planes                                  92.5          93          92
 RS_GRID|   Distribution                         Average         Max         Min
 RS_GRID|   Planes                                  92.5          93          92

 RS_GRID| Information for grid number                                          3
 RS_GRID|   Bounds   1            -50      49                Points:         100
 RS_GRID|   Bounds   2            -50      49                Points:         100
 RS_GRID|   Bounds   3            -50      49                Points:         100
 RS_GRID| Real space fully replicated
 RS_GRID| Group size                                                           1

 RS_GRID| Information for grid number                                          4
 RS_GRID|   Bounds   1            -30      29                Points:          60
 RS_GRID|   Bounds   2            -30      29                Points:          60
 RS_GRID|   Bounds   3            -30      29                Points:          60
 RS_GRID| Real space fully replicated
 RS_GRID| Group size                                                           1

 RS_GRID| Information for grid number                                          5
 RS_GRID|   Bounds   1            -18      17                Points:          36
 RS_GRID|   Bounds   2            -18      17                Points:          36
 RS_GRID|   Bounds   3            -18      17                Points:          36
 RS_GRID| Real space fully replicated
 RS_GRID| Group size                                                           1

 RS_GRID| Information for grid number                                          6
 RS_GRID|   Bounds   1            -10       9                Points:          20
 RS_GRID|   Bounds   2            -10       9                Points:          20
 RS_GRID|   Bounds   3            -10       9                Points:          20
 RS_GRID| Real space fully replicated
 RS_GRID| Group size                                                           1

 Number of electrons:                                                         10
 Number of occupied orbitals:                                                  5
 Number of molecular orbitals:                                                 5

 Number of orbital functions:                                                 43
 Number of independent orbital functions:                                     43

 Extrapolation method: initial_guess

 Atomic guess: The first density matrix is obtained in terms of atomic orbitals
               and electronic configurations assigned to each atomic kind

 Guess for atomic kind: H

 Electronic structure
    Total number of core electrons                                          0.00
    Total number of valence electrons                                       1.00
    Total number of electrons                                               1.00
    Multiplicity                                                   not specified
    S      1.00
 

 *******************************************************************************
                  Iteration          Convergence                     Energy [au]
 *******************************************************************************
                          1        0.917598E-02                  -0.444895232610
                          2        0.101733E-02                  -0.444969959338
                          3        0.739292E-04                  -0.444971980690
                          4        0.601377E-07                  -0.444971989573

 Energy components [Hartree]           Total Energy ::           -0.444971989573
                                        Band Energy ::           -0.230448725171
                                     Kinetic Energy ::            0.428990089350
                                   Potential Energy ::           -0.873962078923
                                      Virial (-V/T) ::            2.037254707321
                                        Core Energy ::           -0.496265746842
                                          XC Energy ::           -0.234272986041
                                     Coulomb Energy ::            0.285566743311

 Orbital energies  State     L     Occupation   Energy[a.u.]          Energy[eV]

                       1     0          1.000      -0.230449           -6.270829
 

 Total Electron Density at R=0:                                         0.247098

 Guess for atomic kind: O

 Electronic structure
    Total number of core electrons                                          0.00
    Total number of valence electrons                                       8.00
    Total number of electrons                                               8.00
    Multiplicity                                                   not specified
    S      2.00  2.00
    P      4.00
 

 *******************************************************************************
                  Iteration          Convergence                     Energy [au]
 *******************************************************************************
                          1        0.795742                     -74.377749916481
                          2        0.901947                     -74.365502725646
                          3        0.456232E-01                 -74.464806449153
                          4        0.153629E-02                 -74.465137831621
                          5        0.109933E-03                 -74.465138092698
                          6        0.915377E-06                 -74.465138094272

 Energy components [Hartree]           Total Energy ::          -74.465138094272
                                        Band Energy ::          -40.579515057988
                                     Kinetic Energy ::           74.110924532828
                                   Potential Energy ::         -148.576062627100
                                      Virial (-V/T) ::            2.004779505365
                                        Core Energy ::         -103.050838543159
                                          XC Energy ::           -7.772673502055
                                     Coulomb Energy ::           36.358373950941

 Orbital energies  State     L     Occupation   Energy[a.u.]          Energy[eV]

                       1     0          2.000     -18.754036         -510.323259
                       2     0          2.000      -0.867175          -23.597024
 
                       1     1          4.000      -0.334274           -9.096048
 

 Total Electron Density at R=0:                                       298.855387
 Re-scaling the density matrix to get the right number of electrons
                  # Electrons              Trace(P)               Scaling factor
                           10                10.000                        1.000


 SCF WAVEFUNCTION OPTIMIZATION

  ----------------------------------- OT ---------------------------------------
  Minimizer      : DIIS                : direct inversion
                                         in the iterative subspace
                                         using   7 DIIS vectors
                                         safer DIIS on
  Preconditioner : FULL_ALL            : diagonalization, state selective
  Precond_solver : DEFAULT
  stepsize       :    0.15000000                  energy_gap     :    0.08000000
  eps_taylor     :   0.10000E-15                  max_taylor     :             4
  ----------------------------------- OT ---------------------------------------

  Step     Update method      Time    Convergence         Total energy    Change
  ------------------------------------------------------------------------------
     1 OT DIIS     0.15E+00   26.4     1.79232649       -51.4647027887 -5.15E+01
     2 OT DIIS     0.15E+00   16.9     0.22726645       -33.6953754374  1.78E+01
     3 OT DIIS     0.15E+00   17.2     0.99309419       -37.3678993143 -3.67E+00
     4 OT SD       0.15E+00   18.2     0.21100202       -74.4788351678 -3.71E+01
     5 OT DIIS     0.15E+00   17.5     0.21306876       -75.1474280727 -6.69E-01
     6 OT DIIS     0.15E+00   17.9     0.35213244       -74.5202939511  6.27E-01
     7 OT DIIS     0.15E+00   18.0     0.25188240       -74.8388367113 -3.19E-01
     8 OT DIIS     0.15E+00   17.7     0.50353848       -74.7279807629  1.11E-01
     9 OT DIIS     0.15E+00   19.3     0.49172836       -74.6157633255  1.12E-01
    10 OT DIIS     0.15E+00   17.6     0.28563727       -75.3540190614 -7.38E-01
    11 OT DIIS     0.15E+00   18.4     0.06058028       -75.5362973796 -1.82E-01
    12 OT SD       0.15E+00   17.5     0.06077944       -75.5616975360 -2.54E-02
    13 OT SD       0.15E+00   17.0     0.06247065       -75.6632155193 -1.02E-01
    14 OT DIIS     0.15E+00   17.4     0.11832401       -75.7046962332 -4.15E-02
    15 OT SD       0.15E+00   17.1     0.04636426       -75.9910742998 -2.86E-01
    16 OT SD       0.15E+00   16.4     0.09093823       -76.0072504409 -1.62E-02
    17 OT DIIS     0.15E+00   17.5     0.24986788       -75.8187610346  1.88E-01
    18 OT DIIS     0.15E+00   17.2     0.06669381       -75.9501539460 -1.31E-01
    19 OT DIIS     0.15E+00   17.6     0.04651592       -75.9788354919 -2.87E-02
    20 OT DIIS     0.15E+00   16.8     0.04466034       -76.0113770429 -3.25E-02

  Leaving inner SCF loop after reaching    20 steps.


  Electronic density on regular grids:         -7.5342573212        2.4657426788
  Core density on regular grids:               10.0000000000       -0.0000000000
  Hard and soft densities (Lebedev):          -13.6669190644      -11.2011762010
  Total Rho_soft + Rho1_hard - Rho1_soft      -10.0000001846
  Total charge density (r-space):              -0.0000001846
  Total Rho_soft + Rho0_soft (g-space):        -0.0000001379

  Overlap energy of the core charge distribution:               0.00000007237233
  Self energy of the core charge distribution:                -75.73106814560732
  Core Hamiltonian energy:                                     -5.24952645211025
  Hartree energy:                                              19.47132220999757
  Exchange-correlation energy:                                 -3.64968097302875

  GAPW| Exc from hard and soft atomic rho1:                    -5.49579365842298
  GAPW| local Eh = 1 center integrals:                         -5.35663009611456

  Total energy:                                               -76.01137704291398

  outer SCF iter =    1 RMS gradient =   0.45E-01 energy =        -76.0113770429

  ----------------------------------- OT ---------------------------------------
  Minimizer      : DIIS                : direct inversion
                                         in the iterative subspace
                                         using   7 DIIS vectors
                                         safer DIIS on
  Preconditioner : FULL_ALL            : diagonalization, state selective
  Precond_solver : DEFAULT
  stepsize       :    0.15000000                  energy_gap     :    0.08000000
  eps_taylor     :   0.10000E-15                  max_taylor     :             4
  ----------------------------------- OT ---------------------------------------

  Step     Update method      Time    Convergence         Total energy    Change
  ------------------------------------------------------------------------------
     1 OT DIIS     0.15E+00   44.3     0.13078885       -76.1208635582 -1.09E-01
     2 OT DIIS     0.15E+00   18.0     0.06832659       -76.3235408878 -2.03E-01
     3 OT DIIS     0.15E+00   17.1     0.01913298       -76.3713992288 -4.79E-02
     4 OT DIIS     0.15E+00   17.5     0.00624733       -76.3757004022 -4.30E-03
     5 OT DIIS     0.15E+00   16.2     0.00274814       -76.3764600471 -7.60E-04
     6 OT DIIS     0.15E+00   17.0     0.00040221       -76.3765310346 -7.10E-05
     7 OT DIIS     0.15E+00   17.7     0.00028955       -76.3765329902 -1.96E-06
     8 OT DIIS     0.15E+00   17.4     0.00002275       -76.3765339721 -9.82E-07
     9 OT DIIS     0.15E+00   18.2     0.00000381       -76.3765339822 -1.01E-08
    10 OT DIIS     0.15E+00   16.4     0.00000041       -76.3765339825 -2.16E-10
    11 OT DIIS     0.15E+00   17.4     0.00000006       -76.3765339825 -1.55E-12

  *** SCF run converged in    11 steps ***


  Electronic density on regular grids:         -7.4215610805        2.5784389195
  Core density on regular grids:               10.0000000000       -0.0000000000
  Hard and soft densities (Lebedev):          -13.9322638282      -11.3538251161
  Total Rho_soft + Rho1_hard - Rho1_soft       -9.9999997926
  Total charge density (r-space):               0.0000002074
  Total Rho_soft + Rho0_soft (g-space):         0.0000002537

  Overlap energy of the core charge distribution:               0.00000007237233
  Self energy of the core charge distribution:                -75.73106814560732
  Core Hamiltonian energy:                                     -5.35259962296244
  Hartree energy:                                              19.00931628951740
  Exchange-correlation energy:                                 -3.66703865905248

  GAPW| Exc from hard and soft atomic rho1:                    -5.57382887721235
  GAPW| local Eh = 1 center integrals:                         -5.06131503950841

  Total energy:                                               -76.37653398245327

  outer SCF iter =    2 RMS gradient =   0.56E-07 energy =        -76.3765339825
  outer SCF loop converged in   2 iterations or   31 steps


 !-----------------------------------------------------------------------------!
                     Mulliken Population Analysis

 #  Atom  Element  Kind  Atomic population                           Net charge
       1     H        1          0.688581                              0.311419
       2     H        1          0.688581                              0.311419
       3     O        2          8.622838                             -0.622838
 # Total charge                             10.000000                  0.000000

 !-----------------------------------------------------------------------------!

 !-----------------------------------------------------------------------------!
                           Hirshfeld Charges

  #Atom  Element  Kind  Ref Charge     Population                    Net charge
      1       H      1       1.000          0.410                         0.590
      2       H      1       1.000          0.410                         0.590
      3       O      2       8.000          9.178                        -1.178

  Total Charge                                                            0.002
 !-----------------------------------------------------------------------------!

 *******************************************************************************
 **                                                                           **
 **         ######## #######   #######   ######## #######  ########           **
 **            ##    ##     ## ##     ## ##       ##   ##     ##              **
 **            ##    ##     ## ##     ## ######   #######     ##              **
 **            ##    ##     ## ##     ## ##       ##          ##              **
 **            ##    #######   #######   ##       ##          ##              **
 **                                                                           **
 *******************************************************************************
 KERNEL|                                                                    FULL
 FUNCTIONAL| PBE:
 FUNCTIONAL| J.P.Perdew, K.Burke, M.Ernzerhof, Phys. Rev. Letter, vol. 77, n 18,
 FUNCTIONAL|  pp. 3865-3868, (1996) {spin unpolarized}                          
 KERNEL| Spin symmetry of excitations                                    Triplet
 TDDFPT| Number of states calculated                                          10
 TDDFPT| Number of Davidson iterations                                        20
 TDDFPT| Davidson iteration convergence                                0.100E-07
 TDDFPT| Max. number of Krylov space vectors                                  60
 TDDFPT| Molecular Orbitals:        Spin       AOs       Occ      Virt     Total
 TDDFPT|                               1        43         5        38        43

 *******************************************************************************
 **                                                                           **
 **                            ####### ####### #######                        **
 **                        #   ##      ##   ## ##                             **
 **                       ###  ######  ##   ## ##                             **
 **                        #       ##  ##   ## ##                             **
 **                            ######  ####### #######                        **
 **                 Based on the xas module from Augustin Bussy               **
 *******************************************************************************
 
 -------------------------------------------------------------------------------
 -                      TDDFPT TRIPLET ENERGIES                                 -
 -------------------------------------------------------------------------------
 
 -------------------------------------------------------------------------------
 -                            TDDFPT Initial Guess                             -
 -------------------------------------------------------------------------------
          State         Occupied      ->      Virtual          Excitation
          number         orbital              orbital          energy (eV)
 -------------------------------------------------------------------------------
             1                5                    6              6.86326
             2                5                    7              8.90496
             3                4                    6              8.98374
             4                4                    7             11.02545
             5                3                    6             12.80930
             6                3                    7             14.85101
             7                5                    8             15.79073
             8                5                    9             17.22879
             9                5                   10             17.79364
            10                5                   11             17.81299

      Number of active states:                                        190
 -------------------------------------------------------------------------------
 
 -------------------------------------------------------------------------------
 -                      TDDFPT WAVEFUNCTION OPTIMIZATION                       -
 -------------------------------------------------------------------------------

          Step            Time         Convergence           Conv. states
 -------------------------------------------------------------------------------

    State    Exc. energy (eV)      Convergence (eV)
        1       6.5742071            -2.8905E-01
        2       8.5987402            -3.0622E-01
        3       8.6430242            -3.4071E-01
        4      10.5723339            -4.5311E-01
        5      12.3651016            -4.4420E-01
        6      14.1143463            -7.3666E-01
        7      15.5091372            -2.8159E-01
        8      16.6350472            -5.9374E-01
        9      16.7941086            -9.9953E-01
       10      17.3189001            -4.9409E-01
 
             1            90.9          3.6732E-02                      0

    State    Exc. energy (eV)      Convergence (eV)
        1       6.5568793            -1.7328E-02
        2       8.5609182            -3.7822E-02
        3       8.6213610            -2.1663E-02
        4      10.5135990            -5.8735E-02
        5      12.3113503            -5.3751E-02
        6      13.9976087            -1.1674E-01
        7      15.4934091            -1.5728E-02
        8      16.5550632            -7.9984E-02
        9      16.7689011            -2.5207E-02
       10      17.2143743            -1.0453E-01
 
             2            91.7          4.2900E-03                      0

    State    Exc. energy (eV)      Convergence (eV)
        1       6.5568749            -4.4391E-06
        2       8.5608713            -4.6851E-05
        3       8.6213575            -3.4159E-06
        4      10.5135114            -8.7656E-05
        5      12.3112371            -1.1325E-04
        6      13.9971439            -4.6478E-04
        7      15.4933873            -2.1871E-05
        8      16.5527148            -2.3484E-03
        9      16.7688952            -5.9602E-06
       10      17.2142467            -1.2764E-04
 
             3            96.2          8.6303E-05                      0

    State    Exc. energy (eV)      Convergence (eV)
        1       6.5568749            -7.8466E-10
        2       8.5608713            -1.9423E-08
        3       8.6213575            -2.0066E-09
        4      10.5135113            -6.6087E-08
        5      12.3112370            -7.2913E-08
        6      13.9971434            -5.2831E-07
        7      15.4933873            -9.1045E-09
        8      16.5527061            -8.7059E-06
        9      16.7688952            -3.7269E-09
       10      17.2142466            -4.2770E-08
 
             4           100.4          3.1994E-07                      8

    State    Exc. energy (eV)      Convergence (eV)
        1       6.5568749            -2.3640E-13
        2       8.5608713            -6.5965E-12
        3       8.6213575            -1.2840E-13
        4      10.5135113            -5.6994E-11
        5      12.3112370            -9.8599E-11
        6      13.9971434            -2.1518E-10
        7      15.4933873            -5.3473E-13
        8      16.5527061            -6.3503E-09
        9      16.7688952            -3.8368E-13
       10      17.2142466            -5.0391E-12
 
             5            65.5          2.3337E-10                     10
 ------------------------- Restart Davidson iterations -------------------------

    State    Exc. energy (eV)      Convergence (eV)
        1       6.5568749            -1.2084E-14
        2       8.5608713            -1.3595E-14
        3       8.6213575             0.0000E+00
        4      10.5135113            -1.5105E-15
        5      12.3112370            -1.8126E-14
        6      13.9971434             0.0000E+00
        7      15.4933873             1.5105E-14
        8      16.5527061             3.0211E-15
        9      16.7688952             9.0632E-15
       10      17.2142466            -1.5105E-14
 
             6            64.8          6.6613E-16                     10
 
 -------------------------------------------------------------------------------
 -  TDDFPT run converged in 6 iteration(s) 
 -------------------------------------------------------------------------------

 R-TDDFPT states of multiplicity 3
 Transition dipoles calculated using length formulation

         State    Excitation        Transition dipole (a.u.)        Oscillator
         number   energy (eV)       x           y           z     strength (a.u.)
         ------------------------------------------------------------------------
 TDDFPT|      1       6.55687   0.0000E+00  0.0000E+00  0.0000E+00   0.00000E+00
 TDDFPT|      2       8.56087   0.0000E+00  0.0000E+00  0.0000E+00   0.00000E+00
 TDDFPT|      3       8.62136   0.0000E+00  0.0000E+00  0.0000E+00   0.00000E+00
 TDDFPT|      4      10.51351   0.0000E+00  0.0000E+00  0.0000E+00   0.00000E+00
 TDDFPT|      5      12.31124   0.0000E+00  0.0000E+00  0.0000E+00   0.00000E+00
 TDDFPT|      6      13.99714   0.0000E+00  0.0000E+00  0.0000E+00   0.00000E+00
 TDDFPT|      7      15.49339   0.0000E+00  0.0000E+00  0.0000E+00   0.00000E+00
 TDDFPT|      8      16.55271   0.0000E+00  0.0000E+00  0.0000E+00   0.00000E+00
 TDDFPT|      9      16.76890   0.0000E+00  0.0000E+00  0.0000E+00   0.00000E+00
 TDDFPT|     10      17.21425   0.0000E+00  0.0000E+00  0.0000E+00   0.00000E+00

 TDDFPT : CheckSum  =  0.153302E+01
 
 -------------------------------------------------------------------------------
 -                            Excitation analysis                              -
 -------------------------------------------------------------------------------
        State             Occupied              Virtual             Excitation
        number             orbital              orbital             amplitude
 -------------------------------------------------------------------------------
             1   6.55687 eV
                                 5                    6              -0.999466
             2   8.56087 eV
                                 4                    6               0.997597
             3   8.62136 eV
                                 5                    7              -0.999228
             4  10.51351 eV
                                 4                    7              -0.982900
                                 3                    6              -0.167219
                                 4                    8               0.060476
             5  12.31124 eV
                                 3                    6              -0.982653
                                 4                    7               0.171476
             6  13.99714 eV
                                 3                    7              -0.988709
                                 3                    8               0.076455
                                 5                   10               0.068882
                                 4                   11               0.056335
                                 3                   12               0.055075
                                 4                    6               0.051293
             7  15.49339 eV
                                 5                    8              -0.999414
             8  16.55271 eV
                                 5                   10               0.987868
                                 4                   11               0.114542
                                 3                    7               0.076954
             9  16.76890 eV
                                 5                    9              -0.993120
                                 5                   11              -0.109159
            10  17.21425 eV
                                 5                   11               0.974953
                                 4                   10               0.194823
                                 5                    9              -0.103844
 -------------------------------------------------------------------------------
 
 -------------------------------------------------------------------------------
 -                            Natural Orbital analysis                         -
 -------------------------------------------------------------------------------
   STATE NR.      1             6.55687 eV
     Particle-Hole state: 1   Spin:1     Eigenvalue: 0.99976   Sum Eigv: 0.99976
   STATE NR.      2             8.56087 eV
     Particle-Hole state: 1   Spin:1     Eigenvalue: 0.99708   Sum Eigv: 0.99708
   STATE NR.      3             8.62136 eV
     Particle-Hole state: 1   Spin:1     Eigenvalue: 0.99949   Sum Eigv: 0.99949
   STATE NR.      4            10.51351 eV
     Particle-Hole state: 1   Spin:1     Eigenvalue: 0.97041   Sum Eigv: 0.97041
     Particle-Hole state: 2   Spin:1     Eigenvalue: 0.02947   Sum Eigv: 0.99989
   STATE NR.      5            12.31124 eV
     Particle-Hole state: 1   Spin:1     Eigenvalue: 0.96836   Sum Eigv: 0.96836
     Particle-Hole state: 2   Spin:1     Eigenvalue: 0.03116   Sum Eigv: 0.99951
   STATE NR.      6            13.99714 eV
     Particle-Hole state: 1   Spin:1     Eigenvalue: 0.98651   Sum Eigv: 0.98651
   STATE NR.      7            15.49339 eV
     Particle-Hole state: 1   Spin:1     Eigenvalue: 0.99949   Sum Eigv: 0.99949
   STATE NR.      8            16.55271 eV
     Particle-Hole state: 1   Spin:1     Eigenvalue: 0.97619   Sum Eigv: 0.97619
   STATE NR.      9            16.76890 eV
     Particle-Hole state: 1   Spin:1     Eigenvalue: 0.99926   Sum Eigv: 0.99926
   STATE NR.     10            17.21425 eV
     Particle-Hole state: 1   Spin:1     Eigenvalue: 0.96184   Sum Eigv: 0.96184
[...]
 flops     6 x    32 x     6                36864       0.0%    100.0%      0.0%
 flops    31 x     6 x    31                46128       0.0%    100.0%      0.0%
 flops     5 x     5 x     5                66750       0.0%    100.0%      0.0%
 flops     6 x     5 x     5                94200       0.0%    100.0%      0.0%
 flops    31 x    32 x     6                95232       0.0%    100.0%      0.0%
 flops     6 x    32 x    31                95232       0.0%    100.0%      0.0%
 flops    31 x     5 x     5               243350       0.0%    100.0%      0.0%
 flops    31 x    32 x    31               246016       0.0%    100.0%      0.0%
 flops     6 x     6 x     5               315360       0.0%    100.0%      0.0%
 flops     6 x    31 x     5               543120       0.0%    100.0%      0.0%
 flops    31 x     6 x     5               543120       0.0%    100.0%      0.0%
 flops     6 x     5 x     6              1244880       0.0%    100.0%      0.0%
 flops     5 x     5 x     6              1275600       0.0%    100.0%      0.0%
 flops    31 x    31 x     5              2806120       0.0%    100.0%      0.0%
 flops    31 x     5 x     6              3098760       0.0%    100.0%      0.0%
 flops     6 x     5 x    31              3098760       0.0%    100.0%      0.0%
 flops     5 x     5 x    31              3295300       0.0%    100.0%      0.0%
 flops    31 x     5 x    31              8610560       0.0%    100.0%      0.0%
 flops inhomo. stacks                           0       0.0%      0.0%      0.0%
 flops total                        25.797976E+06       0.0%    100.0%      0.0%
 flops max/rank                     13.282168E+06       0.0%    100.0%      0.0%
 matmuls inhomo. stacks                         0       0.0%      0.0%      0.0%
 matmuls total                              16626       0.0%    100.0%      0.0%
 number of processed stacks                 15138       0.0%    100.0%      0.0%
 average stack size                                     0.0       1.1       0.0
 marketing flops                    27.507714E+06
 -------------------------------------------------------------------------------
 # multiplications                           1584
 max memory usage/rank             642.240512E+06
 # max total images/rank                        1
 # max 3D layers                                1
 # MPI messages exchanged                 1419264
 MPI messages size (bytes):
  total size                       103.033392E+06
  min size                           0.000000E+00
  max size                           7.936000E+03
  average size                      72.596352E+00
 MPI breakdown and total messages size (bytes):
             size <=      128             1323728                        0
       128 < size <=     8192               95536                103033392
      8192 < size <=    32768                   0                        0
     32768 < size <=   131072                   0                        0
    131072 < size <=  4194304                   0                        0
   4194304 < size <= 16777216                   0                        0
  16777216 < size                               0                        0
 -------------------------------------------------------------------------------
 -                                                                             -
 -                      DBCSR MESSAGE PASSING PERFORMANCE                      -
 -                                                                             -
 -------------------------------------------------------------------------------
 ROUTINE             CALLS      AVE VOLUME [Bytes]
 MP_Bcast               22                     12.
 MP_Allreduce         7047                      8.
 MP_Alltoall         18275                   9040.
 MP_ISend            50680                    266.
 MP_IRecv            50680                    110.
 -------------------------------------------------------------------------------

 -------------------------------------------------------------------------------
 -                                                                             -
 -                                DBM STATISTICS                               -
 -                                                                             -
 -------------------------------------------------------------------------------
    M  x    N  x    K                                          COUNT     PERCENT
 -------------------------------------------------------------------------------

 -------------------------------------------------------------------------------
 -                                                                             -
 -                                GRID STATISTICS                              -
 -                                                                             -
 -------------------------------------------------------------------------------
 LP    KERNEL             BACKEND                              COUNT     PERCENT
 2     collocate general  CPU                                  19776      16.55%
 2     integrate general  CPU                                  19392      16.23%
 0     collocate ortho    CPU                                  13284      11.12%
 0     integrate ortho    CPU                                  13041      10.91%
 1     collocate ortho    CPU                                  11808       9.88%
 1     integrate ortho    CPU                                  11592       9.70%
 2     collocate ortho    CPU                                   7544       6.31%
 2     integrate ortho    CPU                                   7406       6.20%
 3     collocate ortho    CPU                                   4920       4.12%
 3     integrate ortho    CPU                                   4830       4.04%
 4     collocate ortho    CPU                                   1968       1.65%
 4     integrate ortho    CPU                                   1932       1.62%
 5     collocate ortho    CPU                                    656       0.55%
 5     integrate ortho    CPU                                    644       0.54%
 0     collocate general  CPU                                    192       0.16%
 0     integrate general  CPU                                    192       0.16%
 6     collocate ortho    CPU                                    164       0.14%
 6     integrate ortho    CPU                                    161       0.13%
 -------------------------------------------------------------------------------

 MEMORY| Estimated peak process memory [MiB]                                 613

 -------------------------------------------------------------------------------
 ----                             MULTIGRID INFO                            ----
 -------------------------------------------------------------------------------
 count for grid        1:         162349          cutoff [a.u.]          600.00
 count for grid        2:          29523          cutoff [a.u.]          200.00
 count for grid        3:          26657          cutoff [a.u.]           66.67
 count for grid        4:           5781          cutoff [a.u.]           22.22
 count for grid        5:            960          cutoff [a.u.]            7.41
 total gridlevel count  :         225270

 -------------------------------------------------------------------------------
 -                                                                             -
 -                         MESSAGE PASSING PERFORMANCE                         -
 -                                                                             -
 -------------------------------------------------------------------------------

 ROUTINE             CALLS      AVE VOLUME [Bytes]
 MP_Group                6
 MP_Bcast             1480                 241883.
 MP_Allreduce         7657                   4286.
 MP_Sync                96
 MP_Alltoall          4630                2904068.
 MP_SendRecv         41328                  49840.
 MP_ISendRecv        40572                  49840.
 MP_Wait             82813
 MP_comm_split          91
 MP_ISend            38232                 175387.
 MP_IRecv            39586                 169433.
 -------------------------------------------------------------------------------


 -------------------------------------------------------------------------------
 -                                                                             -
 -                           R E F E R E N C E S                               -
 -                                                                             -
 -------------------------------------------------------------------------------
 
 CP2K version 2023.2 (Development Version), the CP2K developers group (2023).
 CP2K is freely available from https://www.cp2k.org/ .

 Kuehne,Thomas D.; Iannuzzi,Marcella; Del Ben,Mauro;
 Rybkin,Vladimir V.; Seewald,Patrick; Stein,Frederick; Laino,Teodoro;
 Khaliullin,Rustam Z.; Schuett,Ole; Schiffmann,Florian; Golze,Dorothea;
 Wilhelm,Jan; Chulkov,Sergey; Bani-Hashemian,Mohammad Hossein;
 Weber,Valery; Borstnik,Urban; Taillefumier,Mathieu;
 Jakobovits,Alice Shoshana; Lazzaro,Alfio; Pabst,Hans; Mueller,Tiziano;
 Schade,Robert; Guidon,Manuel; Andermatt,Samuel; Holmberg,Nico;
 Schenter,Gregory K.; Hehn,Anna; Bussy,Augustin; Belleflamme,Fabian;
 Tabacchi,Gloria; Gloess,Andreas; Lass,Michael; Bethune,Iain;
 Mundy,Christopher J.; Plessl,Christian; Watkins,Matt;
 VandeVondele,Joost; Krack,Matthias; Hutter,Juerg. 
 The Journal of Chemical Physics, 152 (19), (2020). 
 CP2K: An electronic structure and molecular dynamics software package -
 Quickstep: Efficient and accurate electronic structure calculations.
 https://doi.org/10.1063/5.0007045

 Schuett, Ole; Messmer, Peter; Hutter, Juerg; VandeVondele, Joost. 
 Electronic Structure Calculations on Graphics Processing Units, John
 Wiley & Sons, Ltd, 173-190 (2016). 
 GPU-Accelerated Sparse Matrix-Matrix Multiplication for
 Linear Scaling Density Functional Theory.
 https://doi.org/10.1002/9781118670712.ch8

 Heinecke, A; Henry, G; Hutchinson, M; Pabst, H. 
 Proceedings of Intl. Supercomputing Conference, 981-991 (2016). 
 LIBXSMM: Accelerating Small Matrix Multiplications
 by Runtime Code Generation.
 https://doi.org/10.1109/SC.2016.83

 Borstnik, U; VandeVondele, J; Weber, V; Hutter, J. 
 PARALLEL COMPUTING, 40 (5-6), 47-58 (2014). 
 Sparse matrix multiplication: The distributed block-compressed sparse
 row library.
 https://doi.org/10.1016/j.parco.2014.03.012

 Hutter, J; Iannuzzi, M; Schiffmann, F; VandeVondele, J. 
 WIREs Comput Mol Sci., 4 (1), 15-25 (2014). 
 CP2K: atomistic simulations of condensed matter systems.
 https://doi.org/10.1002/wcms.1159

 Frigo, M; Johnson, SG. 
 PROCEEDINGS OF THE IEEE, 93 (2), 216-231 (2005). 
 The design and implementation of FFTW3.
 https://doi.org/10.1109/JPROC.2004.840301

 Iannuzzi, M; Chassaing, T; Wallman, T; Hutter, J. 
 CHIMIA, 59 (7-8), 499-503 (2005). 
 Ground and excited state density functional calculations with the
 Gaussian and augmented-plane-wave method.
 https://doi.org/10.2533/000942905777676164

 VandeVondele, J; Hutter, J. 
 JOURNAL OF CHEMICAL PHYSICS, 118 (10), 4365-4369 (2003). 
 An efficient orbital transformation method for electronic structure
 calculations.
 https://doi.org/10.1063/1.1543154

 Martin,Richard L.. 
 The Journal of Chemical Physics, 118 (11), 4775-4777 (2003). 
 Natural transition orbitals.
 https://doi.org/10.1063/1.1558471

 Lippert, G; Hutter, J; Parrinello, M. 
 THEORETICAL CHEMISTRY ACCOUNTS, 103 (2), 124-140 (1999). 
 The Gaussian and augmented-plane-wave density functional method for ab
 initio molecular dynamics simulations.
 https://doi.org/10.1007/s002140050523

 Krack, M; Parrinello, M. 
 PHYSICAL CHEMISTRY CHEMICAL PHYSICS, 2 (10), 2105-2112 (2000). 
 All-electron ab-initio molecular dynamics.
 https://doi.org/10.1039/b001167n

 Martyna, GJ; Tuckerman, ME. 
 JOURNAL OF CHEMICAL PHYSICS, 110 (6), 2810-2821 (1999). 
 A reciprocal space based method for treating long range interactions in
 ab initio and force-field-based calculations in clusters.
 https://doi.org/10.1063/1.477923

 Perdew, JP; Burke, K; Ernzerhof, M. 
 PHYSICAL REVIEW LETTERS, 77 (18), 3865-3868 (1996). 
 Generalized gradient approximation made simple.
 https://doi.org/10.1103/PhysRevLett.77.3865


 -------------------------------------------------------------------------------
 -                                                                             -
 -                                T I M I N G                                  -
 -                                                                             -
 -------------------------------------------------------------------------------
 SUBROUTINE                       CALLS  ASD         SELF TIME        TOTAL TIME
                                MAXIMUM       AVERAGE  MAXIMUM  AVERAGE  MAXIMUM
 CP2K                                 1  1.0    0.134    0.186 1897.827 1897.833
 qs_energies                          1  2.0    0.016    0.035 1896.212 1896.223
 qs_energies_properties               1  3.0    0.000    0.000 1326.616 1326.626
 tddfpt                               1  4.0    0.018    0.041 1326.616 1326.626
 tddfpt_soc_energies                  1  5.0    0.001    0.023 1319.826 1319.842
 tddfpt_energies                      2  6.0    0.002    0.011 1280.884 1280.896
 tddfpt_davidson_solver               4  7.0    0.005    0.030 1193.030 1193.081
 tddfpt_compute_Aop_evects           13  8.0    0.000    0.000  868.467  868.524
 dbcsr_multiply_generic            1584 10.7    0.135    0.216  726.484  733.636
 fhxc_kernel                         13  9.0    0.005    0.015  722.118  722.205
 cp_dbcsr_sm_fm_multiply            566  9.3    0.009    0.030  563.508  567.625
 scf_env_do_scf                       1  3.0    0.000    0.000  562.201  562.230
 scf_env_do_scf_inner_loop           31  4.0    0.002    0.011  532.401  532.430
 qs_scf_new_mos                      31  5.0    0.000    0.000  415.692  416.143
 qs_scf_loop_do_ot                   31  6.0    0.000    0.000  415.692  416.143
 ot_scf_mini                         31  7.0    0.001    0.011  398.174  398.621
 multiply_cannon                   1584 11.7    4.521    4.972  322.719  333.082
 dbcsr_complete_redistribute       1662 11.4    0.069    0.132  319.777  329.460
 multiply_cannon_loop              1584 12.7    0.441    0.623  266.637  277.292
 pw_transfer                       3618 12.1    0.190    0.237  273.284  274.912
 fft_wrap_pw1pw2                   3313 13.1    0.016    0.026  272.607  274.239
 copy_dbcsr_to_fm                   653 10.2    0.007    0.017  267.493  270.919
 fft3d_ps                          3313 15.1   11.827   12.910  268.423  270.288
 ot_mini                             31  8.0    0.002    0.017  261.755  262.227
 tddfpt_orthonormalize_psi1_psi      15  7.9    0.009    0.047  249.343  251.699
 multiply_cannon_multrec          12672 13.7  218.052  249.485  218.060  249.490
 mp_sum_l                          7017 11.1  240.084  247.606  240.084  247.606
 qs_ot_get_derivative                31  9.0    0.000    0.000  215.433  216.070
 cp_dbcsr_sm_fm_multiply_core       566 10.3    0.001    0.001  205.492  210.034
 qs_rho_update_rho_low              164  9.0    0.004    0.023  191.964  193.254
 cp_dbcsr_plus_fm_fm_t_native       131 10.0    0.002    0.002  183.622  185.171
 copy_fm_to_dbcsr                  1009 10.6    0.004    0.014  178.170  184.943
 mp_alltoall_z22v                  3313 17.1  175.579  180.223  175.579  180.223
 fft_wrap_pw1pw2_600               2012 14.3    1.758    2.019  158.479  160.022
 mp_alltoall_d11v                  7360 12.6  148.228  159.950  148.228  159.950
 qs_ot_get_derivative_diag           29 10.0    0.001    0.001  158.350  158.857
 calculate_rho_elec                 164 10.0    0.086    0.097  157.305  158.650
 tddfpt_apply_energy_diff            13  9.0    0.000    0.001  146.348  146.422
 integrate_v_rspace                 161  9.8    0.003    0.025  140.427  141.980
 potential_pw2rs                    161 10.8    0.012    0.035  133.253  133.628
 density_rs2pw                      164 11.0    0.008    0.009  131.792  133.108
 dbcsr_desymmetrize_deep            654 11.2    0.016    0.050  125.321  129.446
 mp_alltoall_i22                   2345 12.3  118.546  128.305  118.546  128.305
 make_m2s                          3168 11.7    0.029    0.041  111.186  122.456
 make_images                       3168 12.7    9.021    9.803  110.276  119.102
 mp_waitall_1                    169947 14.6   86.454  116.690   86.454  116.690
 mp_sum_dv                         4128 10.4  106.953  109.868  106.953  109.868
 cp_fm_trace_a1b1t1_aa             3325  9.0    6.949   11.294  105.011  106.721
 make_images_sizes                 3168 13.7    0.004    0.024   99.986  103.647
 mp_alltoall_i44                   3168 14.7   99.982  103.645   99.982  103.645
 qs_ot_get_p                         33  7.9    0.000    0.000   95.366   95.860
 xc_pw_derive                      1155 11.7    0.007    0.008   90.771   92.692
 tddfpt_apply_xc_analytic           130 10.0    0.103    0.144   91.699   91.960
 mp_alltoall_i11v                  5727 12.4   90.323   91.850   90.323   91.850
 x_to_yz                           1259 15.9    4.259    4.651   87.846   88.935
 tddfpt_compute_residual_vects        9  8.0    0.000    0.001   87.911   88.169
 qs_ks_update_qs_env                 33  5.0    0.000    0.000   84.754   85.163
 rebuild_ks_matrix                   31  6.0    0.000    0.001   84.547   84.962
 qs_ks_build_kohn_sham_matrix        31  7.0    0.010    0.032   84.547   84.962
 yz_to_x                           1079 16.6    0.509    0.602   78.105   80.822
 mp_cart_sub                       1315 12.1   71.690   75.431   71.690   75.431
 transfer_pw2rs                     907 11.7    0.005    0.006   74.076   74.775
 mp_alltoall_z11v                   975 16.9   71.594   73.273   71.594   73.273
 transfer_rs2pw                     924 11.9    0.008    0.018   62.667   63.751
 hybrid_alltoall_any               3822 14.2    0.034    0.359   51.173   59.199
 multiply_cannon_metrocomm1       12672 13.7    0.029    0.047   29.917   59.052
 qs_ot_p2m_diag                      31  9.0    0.003    0.021   57.234   57.752
 tddfpt_print_nto_analysis            2  7.0    0.003    0.019   57.295   57.656
 xc_pw_divergence                   161 11.6    0.003    0.003   52.909   54.704
 mp_allgather_i34                  1584 12.7   50.547   53.441   50.547   53.441
 mp_sum_dm                         1400 10.9   52.350   53.087   52.350   53.087
 xc_calc_2nd_deriv_analytical       390 11.1    5.121    6.046   48.891   49.239
 mp_waitany                       38232 13.6   45.264   47.009   45.264   47.009
 mp_sum_b                          1832 11.6   45.344   45.952   45.344   45.952
 mp_cart_create                     662 12.1   39.723   44.168   39.723   44.168
 ot_diis_step                        31  9.0    0.007    0.035   43.082   43.178
 mp_sum_d                          1623  8.2   40.630   42.720   40.630   42.720
 xz_to_yz                           492 16.0    1.258    1.443   37.778   38.619
 -------------------------------------------------------------------------------

 The number of warnings for this run is : 2
 
 -------------------------------------------------------------------------------
  **** **** ******  **  PROGRAM ENDED AT                 2023-12-05 17:45:30.885
 ***** ** ***  *** **   PROGRAM RAN ON                               nesh-clk522
 **    ****   ******    PROGRAM RAN BY                                  suphc355
 ***** **    ** ** **   PROGRAM PROCESS ID                               1517763
  **** **  *******  **  PROGRAM STOPPED IN /gxfs_work/cau/suphc355/homologes/H2X
                                           /AE/O
