 DBCSR| CPU Multiplication driver                                           XSMM (U)
 DBCSR| Multrec recursion limit                                              512 (U)
 DBCSR| Multiplication stack size                                           1000 (D)
 DBCSR| Maximum elements for images                                    UNLIMITED (U)
 DBCSR| Multiplicative factor virtual images                                   1 (U)
 DBCSR| Use multiplication densification                                       T (D)
 DBCSR| Multiplication size stacks                                             3 (U)
 DBCSR| Use memory pool for CPU allocation                                     F (U)
 DBCSR| Number of 3D layers                                               SINGLE (U)
 DBCSR| Use MPI memory allocation                                              F (U)
 DBCSR| Use RMA algorithm                                                      F (U)
 DBCSR| Use Communication thread                                               T (U)
 DBCSR| Communication thread load                                             87 (D)
 DBCSR| MPI: My process id                                                     0
 DBCSR| MPI: Number of processes                                             128
 DBCSR| OMP: Current number of threads                                         1
 DBCSR| OMP: Max number of threads                                             1
 DBCSR| Split modifier for TAS multiplication algorithm                  1.0E+00 (U)


  **** **** ******  **  PROGRAM STARTED AT               2024-02-05 12:06:59.138
 ***** ** ***  *** **   PROGRAM STARTED ON                           nesh-srp247
 **    ****   ******    PROGRAM STARTED BY                              suphc355
 ***** **    ** ** **   PROGRAM PROCESS ID                               3694570
  **** **  *******  **  PROGRAM STARTED IN /gxfs_work/cau/suphc355/homologes/H2X
                                           /AE/O

 CP2K| version string:                 CP2K version 2024.1 (Development Version)
 CP2K| source code revision number:                                  git:b6f9133
 CP2K| cp2kflags: omp libint fftw3 libxc libgrpp parallel mpi_f08 scalapack cosm
 CP2K|            a xsmm spglib mkl
 CP2K| is freely available from                            https://www.cp2k.org/
 CP2K| Program compiled at                          Fr 26. Jan 09:14:30 CET 2024
 CP2K| Program compiled on                                           nesh-login3
 CP2K| Program compiled for                                                local
 CP2K| Data directory path            /gxfs_home/cau/suphc355/software/cp2k/data
 CP2K| Input file name                                                    AE.inp
 
 GLOBAL| Force Environment number                                              1
 GLOBAL| Basis set file name                                 ../../../basis_zora
 GLOBAL| Potential file name                                           POTENTIAL
 GLOBAL| MM Potential file name                                     MM_POTENTIAL
 GLOBAL| Coordinate file name                                            opt.xyz
 GLOBAL| Method name                                                        CP2K
 GLOBAL| Project name                                                     H2O_AE
 GLOBAL| Run type                                                         ENERGY
 GLOBAL| FFT library                                                       FFTW3
 GLOBAL| Diagonalization library                                       ScaLAPACK
 GLOBAL| DGEMM library                                                      BLAS
 GLOBAL| Orthonormality check for eigenvectors                          DISABLED
 GLOBAL| Matrix multiplication library                                     COSMA
 GLOBAL| All-to-all communication in single precision                          F
 GLOBAL| FFTs using library dependent lengths                                  F
 GLOBAL| Grid backend                                                       AUTO
 GLOBAL| Global print level                                               MEDIUM
 GLOBAL| MPI I/O enabled                                                       T
 GLOBAL| Total number of message passing processes                           128
 GLOBAL| Number of threads for this process                                    1
 GLOBAL| This output is from process                                           0
 GLOBAL| Stack size for threads created by OpenMP (OMP_STACKSIZE)        default
 GLOBAL| CPU model name                              Intel(R) Xeon(R) Gold 6426Y
 GLOBAL| CPUID                                                              1003

 MEMORY| system memory details [Kb]
 MEMORY|                        rank 0           min           max       average
 MEMORY| MemTotal            263786136     263786136     263786136     263786136
 MEMORY| MemFree             243111184     242538272     243111436     242905325
 MEMORY| Buffers                692460        692460       1005392        836180
 MEMORY| Cached                 829240        829232        888644        848019
 MEMORY| Slab                   570960        570960        670584        605835
 MEMORY| SReclaimable           145096        145096        187964        166189
 MEMORY| MemLikelyFree       244777980     244620272     244849660     244755714


 *** Fundamental physical constants (SI units) ***

 *** Literature: B. J. Mohr and B. N. Taylor,
 ***             CODATA recommended values of the fundamental physical
 ***             constants: 2006, Web Version 5.1
 ***             http://physics.nist.gov/constants

 Speed of light in vacuum [m/s]                             2.99792458000000E+08
 Magnetic constant or permeability of vacuum [N/A**2]       1.25663706143592E-06
 Electric constant or permittivity of vacuum [F/m]          8.85418781762039E-12
 Planck constant (h) [J*s]                                  6.62606896000000E-34
 Planck constant (h-bar) [J*s]                              1.05457162825177E-34
 Elementary charge [C]                                      1.60217648700000E-19
 Electron mass [kg]                                         9.10938215000000E-31
 Electron g factor [ ]                                     -2.00231930436220E+00
 Proton mass [kg]                                           1.67262163700000E-27
 Fine-structure constant                                    7.29735253760000E-03
 Rydberg constant [1/m]                                     1.09737315685270E+07
 Avogadro constant [1/mol]                                  6.02214179000000E+23
 Boltzmann constant [J/K]                                   1.38065040000000E-23
 Atomic mass unit [kg]                                      1.66053878200000E-27
 Bohr radius [m]                                            5.29177208590000E-11

 *** Conversion factors ***

 [u] -> [a.u.]                                              1.82288848426455E+03
 [Angstrom] -> [Bohr] = [a.u.]                              1.88972613288564E+00
 [a.u.] = [Bohr] -> [Angstrom]                              5.29177208590000E-01
 [a.u.] -> [s]                                              2.41888432650478E-17
 [a.u.] -> [fs]                                             2.41888432650478E-02
 [a.u.] -> [J]                                              4.35974393937059E-18
 [a.u.] -> [N]                                              8.23872205491840E-08
 [a.u.] -> [K]                                              3.15774647902944E+05
 [a.u.] -> [kJ/mol]                                         2.62549961709828E+03
 [a.u.] -> [kcal/mol]                                       6.27509468713739E+02
 [a.u.] -> [Pa]                                             2.94210107994716E+13
 [a.u.] -> [bar]                                            2.94210107994716E+08
 [a.u.] -> [atm]                                            2.90362800883016E+08
 [a.u.] -> [eV]                                             2.72113838565563E+01
 [a.u.] -> [Hz]                                             6.57968392072181E+15
 [a.u.] -> [1/cm] (wave numbers)                            2.19474631370540E+05
 [a.u./Bohr**2] -> [1/cm]                                   5.14048714338585E+03
 

 CELL_TOP| Volume [angstrom^3]:                                      8000.000000
 CELL_TOP| Vector a [angstrom    20.000     0.000     0.000   |a| =    20.000000
 CELL_TOP| Vector b [angstrom     0.000    20.000     0.000   |b| =    20.000000
 CELL_TOP| Vector c [angstrom     0.000     0.000    20.000   |c| =    20.000000
 CELL_TOP| Angle (b,c), alpha [degree]:                                90.000000
 CELL_TOP| Angle (a,c), beta  [degree]:                                90.000000
 CELL_TOP| Angle (a,b), gamma [degree]:                                90.000000
 CELL_TOP| Numerically orthorhombic:                                         YES
 CELL_TOP| Periodicity                                                      NONE
 
 GENERATE|  Preliminary Number of Bonds generated:                             0
 GENERATE|  Achieved consistency in connectivity generation.

 CELL| Volume [angstrom^3]:                                          8000.000000
 CELL| Vector a [angstrom]:      20.000     0.000     0.000   |a| =    20.000000
 CELL| Vector b [angstrom]:       0.000    20.000     0.000   |b| =    20.000000
 CELL| Vector c [angstrom]:       0.000     0.000    20.000   |c| =    20.000000
 CELL| Angle (b,c), alpha [degree]:                                    90.000000
 CELL| Angle (a,c), beta  [degree]:                                    90.000000
 CELL| Angle (a,b), gamma [degree]:                                    90.000000
 CELL| Numerically orthorhombic:                                             YES
 CELL| Periodicity                                                          NONE

 CELL_REF| Volume [angstrom^3]:                                      8000.000000
 CELL_REF| Vector a [angstrom    20.000     0.000     0.000   |a| =    20.000000
 CELL_REF| Vector b [angstrom     0.000    20.000     0.000   |b| =    20.000000
 CELL_REF| Vector c [angstrom     0.000     0.000    20.000   |c| =    20.000000
 CELL_REF| Angle (b,c), alpha [degree]:                                90.000000
 CELL_REF| Angle (a,c), beta  [degree]:                                90.000000
 CELL_REF| Angle (a,b), gamma [degree]:                                90.000000
 CELL_REF| Numerically orthorhombic:                                         YES
 CELL_REF| Periodicity                                                      NONE

 *******************************************************************************
 *******************************************************************************
 **                                                                           **
 **     #####                         ##              ##                      **
 **    ##   ##            ##          ##              ##                      **
 **   ##     ##                       ##            ######                    **
 **   ##     ##  ##   ##  ##   #####  ##  ##   ####   ##    #####    #####    **
 **   ##     ##  ##   ##  ##  ##      ## ##   ##      ##   ##   ##  ##   ##   **
 **   ##  ## ##  ##   ##  ##  ##      ####     ###    ##   ######   ######    **
 **    ##  ###   ##   ##  ##  ##      ## ##      ##   ##   ##       ##        **
 **     #######   #####   ##   #####  ##  ##  ####    ##    #####   ##        **
 **           ##                                                    ##        **
 **                                                                           **
 **                                                ... make the atoms dance   **
 **                                                                           **
 **            Copyright (C) by CP2K developers group (2000-2024)             **
 **                      J. Chem. Phys. 152, 194103 (2020)                    **
 **                                                                           **
 *******************************************************************************

 DFT| Spin restricted Kohn-Sham (RKS) calculation                            RKS
 DFT| Multiplicity                                                             1
 DFT| Number of spin states                                                    1
 DFT| Charge                                                                   0
 DFT| Self-interaction correction (SIC)                                       NO
 DFT| Cutoffs: density                                              1.000000E-10
 DFT|          gradient                                             1.000000E-10
 DFT|          tau                                                  1.000000E-10
 DFT|          cutoff_smoothing_range                               0.000000E+00
 DFT| XC density smoothing                                                  NONE
 DFT| XC derivatives                                                          PW

 FUNCTIONAL| PBE:
 FUNCTIONAL| J.P.Perdew, K.Burke, M.Ernzerhof, Phys. Rev. Letter, vol. 77, n 18,
 FUNCTIONAL|  pp. 3865-3868, (1996)sx=0.750sc=1.000{spin unpolarized}           


 QS| Method:                                                                GAPW
 QS| Density plane wave grid type                        NON-SPHERICAL FULLSPACE
 QS| Number of grid levels:                                                    5
 QS| Density cutoff [a.u.]:                                                600.0
 QS| Multi grid cutoff [a.u.]: 1) grid level                               600.0
 QS|                           2) grid level                               200.0
 QS|                           3) grid level                                66.7
 QS|                           4) grid level                                22.2
 QS|                           5) grid level                                 7.4
 QS| Grid level progression factor:                                          3.0
 QS| Relative density cutoff [a.u.]:                                        40.0
 QS| Interaction thresholds: eps_pgf_orb:                                1.0E-30
 QS|                         eps_filter_matrix:                          0.0E+00
 QS|                         eps_core_charge:                            1.0E-17
 QS|                         eps_rho_gspace:                             1.0E-15
 QS|                         eps_rho_rspace:                             1.0E-15
 QS|                         eps_gvg_rspace:                             3.2E-08
 QS|                         eps_ppl:                                    1.0E-02
 QS|                         eps_ppnl:                                   3.2E-10
 QS| GAPW|      One center basis from orbital basis primitives
 QS| GAPW|                   eps_fit:                                    1.0E-04
 QS| GAPW|                   eps_iso:                                    1.0E-12
 QS| GAPW|                   eps_svd:                                    1.0E-08
 QS| GAPW|                   eps_cpc:                                    1.0E-15
 QS| GAPW|   atom-r-grid: quadrature:                                     GC_LOG
 QS| GAPW|      atom-s-grid:  max l :                                          6
 QS| GAPW|      max_l_rho0 :                                                   2


 ATOMIC KIND INFORMATION

  1. Atomic kind: H                                     Number of atoms:       2

     Orbital Basis Set                                                  TZP-ZORA

       Number of orbital shell sets:                                           6
       Number of orbital shells:                                               6
       Number of primitive Cartesian functions:                                8
       Number of Cartesian basis functions:                                   15
       Number of spherical basis functions:                                   14
       Norm type:                                                              2

       Normalised Cartesian orbitals:

                        Set   Shell   Orbital            Exponent    Coefficient

                          1       1    1s               34.877584       0.254499
                                                         5.233973       0.449285
                                                         1.185033       0.695456

                          2       1    1s                0.328339       0.309138

                          3       1    1s                0.110319       0.136426

                          4       1    1px               0.718844       0.943482
                          4       1    1py               0.718844       0.943482
                          4       1    1pz               0.718844       0.943482

                          5       1    1px               0.350000       0.383729
                          5       1    1py               0.350000       0.383729
                          5       1    1pz               0.350000       0.383729

                          6       1    1dx2              1.075060       1.868171
                          6       1    1dxy              1.075060       3.235768
                          6       1    1dxz              1.075060       3.235768
                          6       1    1dy2              1.075060       1.868171
                          6       1    1dyz              1.075060       3.235768
                          6       1    1dz2              1.075060       1.868171

       Atomic covalent radius [Angstrom]:                                  0.320

       Atomic van der Waals radius [Angstrom]:                             1.090

     The atoms of this atomic kind are PAW atoms (GAPW):
       Hard Gaussian function radius:                                      1.200
       Rho0 radius:                                                        1.200
       Maximum GTO radius used for PAW projector construction:            24.566

     GAPW Soft Basis Set                                           TZP-ZORA_soft

       Number of orbital shell sets:                                           6
       Number of orbital shells:                                               6
       Number of primitive Cartesian functions:                                7
       Number of Cartesian basis functions:                                   15
       Number of spherical basis functions:                                   14
       Norm type:                                                              2

       Normalised Cartesian orbitals:

                        Set   Shell   Orbital            Exponent    Coefficient

                          1       1    1s                5.233973       0.449285
                                                         1.185033       0.695456

                          2       1    1s                0.328339       0.309138

                          3       1    1s                0.110319       0.136426

                          4       1    1px               0.718844       0.943482
                          4       1    1py               0.718844       0.943482
                          4       1    1pz               0.718844       0.943482

                          5       1    1px               0.350000       0.383729
                          5       1    1py               0.350000       0.383729
                          5       1    1pz               0.350000       0.383729

                          6       1    1dx2              1.075060       1.868171
                          6       1    1dxy              1.075060       3.235768
                          6       1    1dxz              1.075060       3.235768
                          6       1    1dy2              1.075060       1.868171
                          6       1    1dyz              1.075060       3.235768
                          6       1    1dz2              1.075060       1.868171

     AE Potential information for                                            ALL

       Description:                                       All-electron potential
                                          Krack, Parrinello, PCCP 2, 2105 (2000)

       Gaussian exponent of the core charge distribution:              12.500000
       Electronic configuration (s p d ...):                           1   0   0

  2. Atomic kind: O                                     Number of atoms:       1

     Orbital Basis Set                                                  TZP-ZORA

       Number of orbital shell sets:                                          11
       Number of orbital shells:                                              11
       Number of primitive Cartesian functions:                               19
       Number of Cartesian basis functions:                                   36
       Number of spherical basis functions:                                   31
       Norm type:                                                              2

       Normalised Cartesian orbitals:

                        Set   Shell   Orbital            Exponent    Coefficient

                          1       1    1s            12870.845084       1.670134
                                                      1952.247772       2.965847
                                                       454.029695       4.900265
                                                       130.283728       7.253134
                                                        42.792733       8.736813

                          2       1    1s               15.446290       3.273046
                                                         5.877661       1.213404

                          3       1    1s                1.534264       0.982506

                          4       1    1s                0.816007       0.611900

                          5       1    1s                0.260111       0.259585

                          6       1    1px              63.352470       3.122975
                                                        14.669976       3.412732
                                                         4.466319       3.006132
                                                         1.531280       1.705805
                          6       1    1py              63.352470       3.122975
                                                        14.669976       3.412732
                                                         4.466319       3.006132
                                                         1.531280       1.705805
                          6       1    1pz              63.352470       3.122975
                                                        14.669976       3.412732
                                                         4.466319       3.006132
                                                         1.531280       1.705805

                          7       1    1px               0.544005       0.665954
                          7       1    1py               0.544005       0.665954
                          7       1    1pz               0.544005       0.665954

                          8       1    1px               0.179985       0.167103
                          8       1    1py               0.179985       0.167103
                          8       1    1pz               0.179985       0.167103

                          9       1    1dx2              2.390160       7.562348
                          9       1    1dxy              2.390160      13.098371
                          9       1    1dxz              2.390160      13.098371
                          9       1    1dy2              2.390160       7.562348
                          9       1    1dyz              2.390160      13.098371
                          9       1    1dz2              2.390160       7.562348

                         10       1    1dx2              0.681833       0.842066
                         10       1    1dxy              0.681833       1.458501
                         10       1    1dxz              0.681833       1.458501
                         10       1    1dy2              0.681833       0.842066
                         10       1    1dyz              0.681833       1.458501
                         10       1    1dz2              0.681833       0.842066

                         11       1    1fx3              1.510948       3.726197
                         11       1    1fx2y             1.510948       8.332031
                         11       1    1fx2z             1.510948       8.332031
                         11       1    1fxy2             1.510948       8.332031
                         11       1    1fxyz             1.510948      14.431501
                         11       1    1fxz2             1.510948       8.332031
                         11       1    1fy3              1.510948       3.726197
                         11       1    1fy2z             1.510948       8.332031
                         11       1    1fyz2             1.510948       8.332031
                         11       1    1fz3              1.510948       3.726197

       Atomic covalent radius [Angstrom]:                                  0.730

       Atomic van der Waals radius [Angstrom]:                             1.520

     The atoms of this atomic kind are PAW atoms (GAPW):
       Hard Gaussian function radius:                                      1.512
       Rho0 radius:                                                        1.512
       Maximum GTO radius used for PAW projector construction:            24.566

     GAPW Soft Basis Set                                           TZP-ZORA_soft

       Number of orbital shell sets:                                          11
       Number of orbital shells:                                              11
       Number of primitive Cartesian functions:                                9
       Number of Cartesian basis functions:                                   36
       Number of spherical basis functions:                                   31
       Norm type:                                                              2

       Normalised Cartesian orbitals:

                        Set   Shell   Orbital            Exponent    Coefficient

                          1       1    1s         

                          2       1    1s         

                          3       1    1s                1.534264       0.982506

                          4       1    1s                0.816007       0.611900

                          5       1    1s                0.260111       0.259585

                          6       1    1px               1.531280       1.705805
                          6       1    1py               1.531280       1.705805
                          6       1    1pz               1.531280       1.705805

                          7       1    1px               0.544005       0.665954
                          7       1    1py               0.544005       0.665954
                          7       1    1pz               0.544005       0.665954

                          8       1    1px               0.179985       0.167103
                          8       1    1py               0.179985       0.167103
                          8       1    1pz               0.179985       0.167103

                          9       1    1dx2              2.390160       7.562348
                          9       1    1dxy              2.390160      13.098371
                          9       1    1dxz              2.390160      13.098371
                          9       1    1dy2              2.390160       7.562348
                          9       1    1dyz              2.390160      13.098371
                          9       1    1dz2              2.390160       7.562348

                         10       1    1dx2              0.681833       0.842066
                         10       1    1dxy              0.681833       1.458501
                         10       1    1dxz              0.681833       1.458501
                         10       1    1dy2              0.681833       0.842066
                         10       1    1dyz              0.681833       1.458501
                         10       1    1dz2              0.681833       0.842066

                         11       1    1fx3              1.510948       3.726197
                         11       1    1fx2y             1.510948       8.332031
                         11       1    1fx2z             1.510948       8.332031
                         11       1    1fxy2             1.510948       8.332031
                         11       1    1fxyz             1.510948      14.431501
                         11       1    1fxz2             1.510948       8.332031
                         11       1    1fy3              1.510948       3.726197
                         11       1    1fy2z             1.510948       8.332031
                         11       1    1fyz2             1.510948       8.332031
                         11       1    1fz3              1.510948       3.726197

     AE Potential information for                                            ALL

       Description:                                       All-electron potential
                                          Krack, Parrinello, PCCP 2, 2105 (2000)

       Gaussian exponent of the core charge distribution:               8.154466
       Electronic configuration (s p d ...):                           4   4   0


 MOLECULE KIND INFORMATION


 All atoms are their own molecule, skipping detailed information


 TOTAL NUMBERS AND MAXIMUM NUMBERS

  Total number of            - Atomic kinds:                                   2
                             - Atoms:                                          3
                             - Shell sets:                                    23
                             - Shells:                                        23
                             - Primitive Cartesian functions:                 35
                             - Cartesian basis functions:                     66
                             - Spherical basis functions:                     59

  Maximum angular momentum of the orbital basis functions:                     3


 MODULE QUICKSTEP: ATOMIC COORDINATES IN ANGSTROM

   Atom Kind Element         X             Y             Z       Z(eff)     Mass
      1    1 H     1     10.765254     10.000000     10.298513   1.0000   1.0079
      2    1 H     1      9.234746     10.000000     10.298513   1.0000   1.0079
      3    2 O     8     10.000000     10.000000      9.701487   8.0000  15.9994



 SCF PARAMETERS         Density guess:                                    ATOMIC
                        --------------------------------------------------------
                        max_scf:                                              20
                        max_scf_history:                                       0
                        max_diis:                                              4
                        --------------------------------------------------------
                        eps_scf:                                        1.00E-07
                        eps_scf_history:                                0.00E+00
                        eps_diis:                                       1.00E-01
                        eps_eigval:                                     1.00E-05
                        --------------------------------------------------------
                        level_shift [a.u.]:                             0.000000
                        --------------------------------------------------------
                        Outer loop SCF in use 
                        No variables optimised in outer loop
                        eps_scf                                         1.00E-07
                        max_scf                                               50
                        No outer loop optimization
                        step_size                                       5.00E-01

 PW_GRID| Information for grid number                                          1
 PW_GRID| Grid distributed over                                   128 processors
 PW_GRID| Real space group dimensions                                   128    1
 PW_GRID| the grid is blocked:                                                NO
 PW_GRID| Cutoff [a.u.]                                                   1200.0
 PW_GRID| spherical cutoff:                                                   NO
 PW_GRID|   Bounds   1           -300     299                Points:         600
 PW_GRID|   Bounds   2           -300     299                Points:         600
 PW_GRID|   Bounds   3           -300     299                Points:         600
 PW_GRID| Volume element (a.u.^3)  0.2499E-03     Volume (a.u.^3)     53986.6767
 PW_GRID| Grid span                                                    FULLSPACE
 PW_GRID|   Distribution                         Average         Max         Min
 PW_GRID|   G-Vectors                          1687500.0     1687800     1687200
 PW_GRID|   G-Rays                                2812.5        2813        2812
 PW_GRID|   Real Space Points                  1687500.0     1800000     1440000

 PW_GRID| Information for grid number                                          2
 PW_GRID| Number of the reference grid                                         1
 PW_GRID| Grid distributed over                                   128 processors
 PW_GRID| Real space group dimensions                                   128    1
 PW_GRID| the grid is blocked:                                                NO
 PW_GRID| Cutoff [a.u.]                                                    600.0
 PW_GRID| spherical cutoff:                                                   NO
 PW_GRID|   Bounds   1           -216     215                Points:         432
 PW_GRID|   Bounds   2           -216     215                Points:         432
 PW_GRID|   Bounds   3           -216     215                Points:         432
 PW_GRID| Volume element (a.u.^3)  0.6696E-03     Volume (a.u.^3)     53986.6767
 PW_GRID| Grid span                                                    FULLSPACE
 PW_GRID|   Distribution                         Average         Max         Min
 PW_GRID|   G-Vectors                           629856.0      630288      629424
 PW_GRID|   G-Rays                                1458.0        1459        1457
 PW_GRID|   Real Space Points                   629856.0      746496      559872

 PW_GRID| Information for grid number                                          3
 PW_GRID| Number of the reference grid                                         2
 PW_GRID| Grid distributed over                                   128 processors
 PW_GRID| Real space group dimensions                                   128    1
 PW_GRID| the grid is blocked:                                                NO
 PW_GRID| Cutoff [a.u.]                                                    200.0
 PW_GRID| spherical cutoff:                                                   NO
 PW_GRID|   Bounds   1           -121     121                Points:         243
 PW_GRID|   Bounds   2           -121     121                Points:         243
 PW_GRID|   Bounds   3           -121     121                Points:         243
 PW_GRID| Volume element (a.u.^3)  0.3762E-02     Volume (a.u.^3)     53986.6767
 PW_GRID| Grid span                                                    FULLSPACE
 PW_GRID|   Distribution                         Average         Max         Min
 PW_GRID|   G-Vectors                           112100.8      112266      111780
 PW_GRID|   G-Rays                                 461.3         462         460
 PW_GRID|   Real Space Points                   112100.8      118098       59049

 PW_GRID| Information for grid number                                          4
 PW_GRID| Number of the reference grid                                         2
 PW_GRID| Grid distributed over                                   128 processors
 PW_GRID| Real space group dimensions                                   128    1
 PW_GRID| the grid is blocked:                                                NO
 PW_GRID| Cutoff [a.u.]                                                     66.7
 PW_GRID| spherical cutoff:                                                   NO
 PW_GRID|   Bounds   1            -72      71                Points:         144
 PW_GRID|   Bounds   2            -72      71                Points:         144
 PW_GRID|   Bounds   3            -72      71                Points:         144
 PW_GRID| Volume element (a.u.^3)  0.1808E-01     Volume (a.u.^3)     53986.6767
 PW_GRID| Grid span                                                    FULLSPACE
 PW_GRID|   Distribution                         Average         Max         Min
 PW_GRID|   G-Vectors                            23328.0       23472       23184
 PW_GRID|   G-Rays                                 162.0         163         161
 PW_GRID|   Real Space Points                    23328.0       41472       20736

 PW_GRID| Information for grid number                                          5
 PW_GRID| Number of the reference grid                                         2
 PW_GRID| Grid distributed over                                   128 processors
 PW_GRID| Real space group dimensions                                     8   16
 PW_GRID| the grid is blocked:                                                NO
 PW_GRID| Cutoff [a.u.]                                                     22.2
 PW_GRID| spherical cutoff:                                                   NO
 PW_GRID|   Bounds   1            -40      40                Points:          81
 PW_GRID|   Bounds   2            -40      40                Points:          81
 PW_GRID|   Bounds   3            -40      40                Points:          81
 PW_GRID| Volume element (a.u.^3)  0.1016         Volume (a.u.^3)     53986.6767
 PW_GRID| Grid span                                                    FULLSPACE
 PW_GRID|   Distribution                         Average         Max         Min
 PW_GRID|   G-Vectors                             4151.9        4293        4050
 PW_GRID|   G-Rays                                  51.3          53          50
 PW_GRID|   Real Space Points                     4151.9        5346        4050

 PW_GRID| Information for grid number                                          6
 PW_GRID| Number of the reference grid                                         2
 PW_GRID| Grid distributed over                                   128 processors
 PW_GRID| Real space group dimensions                                     8   16
 PW_GRID| the grid is blocked:                                                NO
 PW_GRID| Cutoff [a.u.]                                                      7.4
 PW_GRID| spherical cutoff:                                                   NO
 PW_GRID|   Bounds   1            -24      23                Points:          48
 PW_GRID|   Bounds   2            -24      23                Points:          48
 PW_GRID|   Bounds   3            -24      23                Points:          48
 PW_GRID| Volume element (a.u.^3)  0.4882         Volume (a.u.^3)     53986.6767
 PW_GRID| Grid span                                                    FULLSPACE
 PW_GRID|   Distribution                         Average         Max         Min
 PW_GRID|   G-Vectors                              864.0         912         816
 PW_GRID|   G-Rays                                  18.0          19          17
 PW_GRID|   Real Space Points                      864.0         864         864

 POISSON| Solver                                          Martyna-Tuckerman (MT)
 POISSON| MT| Alpha                                                        7.000
 POISSON| MT| Relative cutoff                                                2.0
 POISSON| Periodicity                                                       NONE

 RS_GRID| Information for grid number                                          2
 RS_GRID|   Bounds   1           -216     215                Points:         432
 RS_GRID|   Bounds   2           -216     215                Points:         432
 RS_GRID|   Bounds   3           -216     215                Points:         432
 RS_GRID| Real space distribution over                                  4 groups
 RS_GRID| Real space distribution along direction                              1
 RS_GRID| Border size                                                         34
 RS_GRID| Real space distribution over                                  4 groups
 RS_GRID| Real space distribution along direction                              2
 RS_GRID| Border size                                                         34
 RS_GRID| Real space distribution over                                  8 groups
 RS_GRID| Real space distribution along direction                              3
 RS_GRID| Border size                                                         34
 RS_GRID|   Distribution                         Average         Max         Min
 RS_GRID|   Planes                                 176.0         176         176
 RS_GRID|   Distribution                         Average         Max         Min
 RS_GRID|   Planes                                 176.0         176         176
 RS_GRID|   Distribution                         Average         Max         Min
 RS_GRID|   Planes                                 122.0         122         122

 RS_GRID| Information for grid number                                          3
 RS_GRID|   Bounds   1           -121     121                Points:         243
 RS_GRID|   Bounds   2           -121     121                Points:         243
 RS_GRID|   Bounds   3           -121     121                Points:         243
 RS_GRID| Real space distribution over                                  4 groups
 RS_GRID| Real space distribution along direction                              1
 RS_GRID| Border size                                                         35
 RS_GRID| Real space distribution over                                  4 groups
 RS_GRID| Real space distribution along direction                              2
 RS_GRID| Border size                                                         35
 RS_GRID| Real space distribution over                                  8 groups
 RS_GRID| Real space distribution along direction                              3
 RS_GRID| Border size                                                         35
 RS_GRID|   Distribution                         Average         Max         Min
 RS_GRID|   Planes                                 130.8         131         130
 RS_GRID|   Distribution                         Average         Max         Min
 RS_GRID|   Planes                                 130.8         131         130
 RS_GRID|   Distribution                         Average         Max         Min
 RS_GRID|   Planes                                 100.4         101         100

 RS_GRID| Information for grid number                                          4
 RS_GRID|   Bounds   1            -72      71                Points:         144
 RS_GRID|   Bounds   2            -72      71                Points:         144
 RS_GRID|   Bounds   3            -72      71                Points:         144
 RS_GRID| Real space fully replicated
 RS_GRID| Group size                                                           1

 RS_GRID| Information for grid number                                          5
 RS_GRID|   Bounds   1            -40      40                Points:          81
 RS_GRID|   Bounds   2            -40      40                Points:          81
 RS_GRID|   Bounds   3            -40      40                Points:          81
 RS_GRID| Real space fully replicated
 RS_GRID| Group size                                                           1

 RS_GRID| Information for grid number                                          6
 RS_GRID|   Bounds   1            -24      23                Points:          48
 RS_GRID|   Bounds   2            -24      23                Points:          48
 RS_GRID|   Bounds   3            -24      23                Points:          48
 RS_GRID| Real space fully replicated
 RS_GRID| Group size                                                           1

  HFX_INFO| Replica ID:                                                        1
  HFX_INFO| FRACTION:                                               0.2500000000
  HFX_INFO| Interaction Potential:                                       COULOMB
  HFX_INFO| EPS_SCHWARZ:                                                 1.0E-10
  HFX_INFO| EPS_SCHWARZ_FORCES                                           1.0E-06
  HFX_INFO| EPS_STORAGE_SCALING:                                         1.0E+00
  HFX_INFO| NBINS:                                                            64
  HFX_INFO| BLOCK_SIZE:                                                        1
  HFX_INFO| Number of periodic shells considered:                           NONE
  HFX_INFO| Number of periodic cells considered:                            NONE


 Number of electrons:                                                         10
 Number of occupied orbitals:                                                  5
 Number of molecular orbitals:                                                 5

 Number of orbital functions:                                                 59
 Number of independent orbital functions:                                     59

 Extrapolation method: initial_guess

 Atomic guess: The first density matrix is obtained in terms of atomic orbitals
               and electronic configurations assigned to each atomic kind

 Guess for atomic kind: H

 Electronic structure
    Total number of core electrons                                          0.00
    Total number of valence electrons                                       1.00
    Total number of electrons                                               1.00
    Multiplicity                                                   not specified
    S      1.00
 

 *******************************************************************************
                  Iteration          Convergence                     Energy [au]
 *******************************************************************************
                          1        0.901344E-02                  -0.444560434385
                          2        0.112810E-02                  -0.444629377369
                          3        0.824978E-04                  -0.444631123607
                          4        0.531592E-07                  -0.444631130415

 Energy components [Hartree]           Total Energy ::           -0.444631130415
                                        Band Energy ::           -0.229051818617
                                     Kinetic Energy ::            0.431531450645
                                   Potential Energy ::           -0.876162581060
                                      Virial (-V/T) ::            2.030356257348
                                        Core Energy ::           -0.496316890851
                                          XC Energy ::           -0.235228547242
                                     Coulomb Energy ::            0.286914307678

 Orbital energies  State     L     Occupation   Energy[a.u.]          Energy[eV]

                       1     0          1.000      -0.229052           -6.232817
 

 Total Electron Density at R=0:                                         0.248567

 Guess for atomic kind: O

 Electronic structure
    Total number of core electrons                                          0.00
    Total number of valence electrons                                       8.00
    Total number of electrons                                               8.00
    Multiplicity                                                   not specified
    S      2.00  2.00
    P      4.00
 

 *******************************************************************************
                  Iteration          Convergence                     Energy [au]
 *******************************************************************************
                          1        0.764538                     -74.378835982846
                          2        0.781742                     -74.367957713988
                          3        0.438944E-01                 -74.463326452075
                          4        0.116982E-02                 -74.463634317732
                          5        0.957264E-04                 -74.463634520850
                          6        0.651993E-06                 -74.463634522214

 Energy components [Hartree]           Total Energy ::          -74.463634522214
                                        Band Energy ::          -40.571095093538
                                     Kinetic Energy ::           74.155219866844
                                   Potential Energy ::         -148.618854389058
                                      Virial (-V/T) ::            2.004159041750
                                        Core Energy ::         -103.055981651543
                                          XC Energy ::           -7.773055868105
                                     Coulomb Energy ::           36.365402997434

 Orbital energies  State     L     Occupation   Energy[a.u.]          Energy[eV]

                       1     0          2.000     -18.752765         -510.288677
                       2     0          2.000      -0.865621          -23.554745
 
                       1     1          4.000      -0.333581           -9.077199
 

 Total Electron Density at R=0:                                       297.797155
 Re-scaling the density matrix to get the right number of electrons
                  # Electrons              Trace(P)               Scaling factor
                           10                10.000                        1.000


 SCF WAVEFUNCTION OPTIMIZATION

  ----------------------------------- OT ---------------------------------------
  Minimizer      : DIIS                : direct inversion
                                         in the iterative subspace
                                         using   7 DIIS vectors
                                         safer DIIS on
  Preconditioner : FULL_ALL            : diagonalization, state selective
  Precond_solver : DEFAULT
  stepsize       :    0.15000000                  energy_gap     :    0.08000000
  eps_taylor     :   0.10000E-15                  max_taylor     :             4
  ----------------------------------- OT ---------------------------------------

  Step     Update method      Time    Convergence         Total energy    Change
  ------------------------------------------------------------------------------

  HFX_MEM_INFO| Est. max. program size before HFX [MiB]:                     918
  HFX_MEM_INFO| Number of cart. primitive ERI's calculated:             16637027
  HFX_MEM_INFO| Number of sph. ERI's calculated:                         3628685
  HFX_MEM_INFO| Number of sph. ERI's stored in-core:                     3628685
  HFX_MEM_INFO| Number of sph. ERI's stored on disk:                           0
  HFX_MEM_INFO| Number of sph. ERI's calculated on the fly:                    0
  HFX_MEM_INFO| Total memory consumption ERI's RAM [MiB]:                     13
  HFX_MEM_INFO| Whereof max-vals [MiB]:                                        2
  HFX_MEM_INFO| Total compression factor ERI's RAM:                         2.27
  HFX_MEM_INFO| Total memory consumption ERI's disk [MiB]:                     0
  HFX_MEM_INFO| Total compression factor ERI's disk:                        0.00
  HFX_MEM_INFO| Size of density/Fock matrix [MiB]:                             0
  HFX_MEM_INFO| Size of buffers [MiB]:                                         0
  HFX_MEM_INFO| Est. max. program size after HFX  [MiB]:                     913

     1 OT DIIS     0.15E+00   98.5     0.16744685       -75.4371427926 -7.54E+01
     2 OT DIIS     0.15E+00   59.8     0.06197058       -76.2482322925 -8.11E-01
     3 OT DIIS     0.15E+00   55.9     0.02761804       -76.3616100552 -1.13E-01
     4 OT DIIS     0.15E+00   58.5     0.00550037       -76.3749234733 -1.33E-02
     5 OT DIIS     0.15E+00   54.2     0.00173948       -76.3760279140 -1.10E-03
     6 OT DIIS     0.15E+00   55.0     0.00074062       -76.3761659724 -1.38E-04
     7 OT DIIS     0.15E+00   56.0     0.00021358       -76.3761956473 -2.97E-05
     8 OT DIIS     0.15E+00   52.2     0.00003667       -76.3761980624 -2.42E-06
     9 OT DIIS     0.15E+00   63.6     0.00001280       -76.3761981160 -5.36E-08
    10 OT DIIS     0.15E+00   56.7     0.00000337       -76.3761981240 -8.06E-09
    11 OT DIIS     0.15E+00   58.7     0.00000144       -76.3761981247 -6.05E-10
    12 OT DIIS     0.15E+00   55.7     0.00000052       -76.3761981248 -1.28E-10
    13 OT DIIS     0.15E+00   59.7     0.00000021       -76.3761981248 -1.32E-11
    14 OT DIIS     0.15E+00   57.9     0.00000008       -76.3761981248 -1.75E-12

  *** SCF run converged in    14 steps ***


  Electronic density on regular grids:         -7.3981607908        2.6018392092
  Core density on regular grids:               10.0000000000       -0.0000000000
  Hard and soft densities (Lebedev):          -16.2571688229      -13.6553302720
  Total Rho_soft + Rho1_hard - Rho1_soft       -9.9999993417
  Total charge density (r-space):               0.0000006583
  Total Rho_soft + Rho0_soft (g-space):         0.0000006186

  Overlap energy of the core charge distribution:               0.00000007237233
  Self energy of the core charge distribution:                -75.73106814560732
  Core Hamiltonian energy:                                     -5.37380333209114
  Hartree energy:                                              18.98028730748416
  Exchange-correlation energy:                                 -2.80663848134199
  Hartree-Fock Exchange energy:                                -2.23076294525121

  GAPW| Exc from hard and soft atomic rho1:                    -4.20963587682479
  GAPW| local Eh = 1 center integrals:                         -5.00457672353744

  Total energy:                                               -76.37619812479741

  outer SCF iter =    1 RMS gradient =   0.80E-07 energy =        -76.3761981248
  outer SCF loop converged in   1 iterations or   14 steps


 !-----------------------------------------------------------------------------!
                     Mulliken Population Analysis

 #  Atom  Element  Kind  Atomic population                           Net charge
       1     H        1          0.763431                              0.236569
       2     H        1          0.763431                              0.236569
       3     O        2          8.473138                             -0.473138
 # Total charge                             10.000000                  0.000000

 !-----------------------------------------------------------------------------!

 !-----------------------------------------------------------------------------!
                           Hirshfeld Charges

  #Atom  Element  Kind  Ref Charge     Population                    Net charge
      1       H      1       1.000          0.406                         0.594
      2       H      1       1.000          0.406                         0.594
      3       O      2       8.000          9.186                        -1.186

  Total Charge                                                            0.001
 !-----------------------------------------------------------------------------!

 *******************************************************************************
 **                                                                           **
 **         ######## #######   #######   ######## #######  ########           **
 **            ##    ##     ## ##     ## ##       ##   ##     ##              **
 **            ##    ##     ## ##     ## ######   #######     ##              **
 **            ##    ##     ## ##     ## ##       ##          ##              **
 **            ##    #######   #######   ##       ##          ##              **
 **                                                                           **
 *******************************************************************************
 KERNEL|                                                                    FULL
 FUNCTIONAL| PBE:
 FUNCTIONAL| J.P.Perdew, K.Burke, M.Ernzerhof, Phys. Rev. Letter, vol. 77, n 18,
 FUNCTIONAL|  pp. 3865-3868, (1996)sx=0.750sc=1.000{spin unpolarized}           
 KERNEL|                                                          Exact Exchange
 KERNEL| Spin symmetry of excitations                                    Triplet
 TDDFPT| Number of states calculated                                          10
 TDDFPT| Number of Davidson iterations                                        20
 TDDFPT| Davidson iteration convergence                                0.100E-07
 TDDFPT| Max. number of Krylov space vectors                                  60
 TDDFPT| Molecular Orbitals:        Spin       AOs       Occ      Virt     Total
 TDDFPT|                               1        59         5        54        59

 *******************************************************************************
 **                                                                           **
 **                            ####### ####### #######                        **
 **                        #   ##      ##   ## ##                             **
 **                       ###  ######  ##   ## ##                             **
 **                        #       ##  ##   ## ##                             **
 **                            ######  ####### #######                        **
 **                 Based on the xas module from Augustin Bussy               **
 *******************************************************************************
 
 -------------------------------------------------------------------------------
 -                      TDDFPT TRIPLET ENERGIES                                 -
 -------------------------------------------------------------------------------
 
 -------------------------------------------------------------------------------
 -                            TDDFPT Initial Guess                             -
 -------------------------------------------------------------------------------
          State         Occupied      ->      Virtual          Excitation
          number         orbital              orbital          energy (eV)
 -------------------------------------------------------------------------------
             1                5                    6             10.06755
             2                5                    7             11.83957
             3                4                    6             12.16092
             4                4                    7             13.93294
             5                3                    6             15.87729
             6                3                    7             17.64931
             7                5                    8             18.74595
             8                5                    9             19.94769
             9                5                   10             20.09394
            10                4                    8             20.83932

      Number of active states:                                        270
 -------------------------------------------------------------------------------
 
 -------------------------------------------------------------------------------
 -                      TDDFPT WAVEFUNCTION OPTIMIZATION                       -
 -------------------------------------------------------------------------------

          Step            Time         Convergence           Conv. states
 -------------------------------------------------------------------------------

    State    Exc. energy (eV)      Convergence (eV)
        1       7.4318927            -2.6357E+00
        2       9.3932945            -2.4463E+00
        3       9.5798467            -2.5811E+00
        4      11.3114722            -2.6215E+00
        5      13.1396250            -2.7377E+00
        6      14.8275495            -2.8218E+00
        7      16.0293622            -2.7166E+00
        8      16.9588758            -2.9888E+00
        9      17.1937310            -2.9002E+00
       10      17.8360014            -3.0033E+00
 
             1           509.0          1.1037E-01                      0

    State    Exc. energy (eV)      Convergence (eV)
        1       7.3548955            -7.6997E-02
        2       9.2746860            -1.1861E-01
        3       9.4268873            -1.5296E-01
        4      11.1597847            -1.5169E-01
        5      12.9478413            -1.9178E-01
        6      14.4426451            -3.8490E-01
        7      15.9848329            -4.4529E-02
        8      16.8424059            -1.1647E-01
        9      17.1365716            -5.7159E-02
       10      17.7333815            -1.0262E-01
 
             2           528.4          1.4145E-02                      0

    State    Exc. energy (eV)      Convergence (eV)
        1       7.3547786            -1.1694E-04
        2       9.2745136            -1.7234E-04
        3       9.4256200            -1.2673E-03
        4      11.1591560            -6.2869E-04
        5      12.9464934            -1.3479E-03
        6      14.4286360            -1.4009E-02
        7      15.9844703            -3.6260E-04
        8      16.8340873            -8.3185E-03
        9      17.1359644            -6.0717E-04
       10      17.7317037            -1.6777E-03
 
             3           494.9          5.1482E-04                      0

    State    Exc. energy (eV)      Convergence (eV)
        1       7.3547784            -2.1625E-07
        2       9.2745131            -5.8981E-07
        3       9.4256062            -1.3817E-05
        4      11.1591548            -1.1451E-06
        5      12.9464869            -6.5454E-06
        6      14.4272433            -1.3928E-03
        7      15.9844676            -2.6033E-06
        8      16.8340679            -1.9431E-05
        9      17.1359456            -1.8819E-05
       10      17.2875314            -4.4417E-01
 
             4           514.2          1.6323E-02                      1

    State    Exc. energy (eV)      Convergence (eV)
        1       7.3547784            -3.5922E-10
        2       9.2745131            -8.1712E-10
        3       9.4256061            -8.2463E-08
        4      11.1591548            -5.8717E-09
        5      12.9464868            -4.2236E-08
        6      14.4271957            -4.7567E-05
        7      15.9844676            -9.9370E-09
        8      16.8340677            -1.8802E-07
        9      17.1359454            -1.9971E-07
       10      17.1750254            -1.1251E-01
 
             5           530.0          4.1345E-03                      8

    State    Exc. energy (eV)      Convergence (eV)
        1       7.3547784            -2.1903E-13
        2       9.2745131            -1.1692E-12
        3       9.4256061            -3.4554E-10
        4      11.1591548            -1.2758E-11
        5      12.9464868            -1.1039E-10
        6      14.4271951            -6.1396E-07
        7      15.9844676            -4.2289E-11
        8      16.8340677            -5.0339E-10
        9      17.1359454            -6.5394E-10
       10      17.1701027            -4.9227E-03
 
             6           468.5          1.8090E-04                      8
 ------------------------- Restart Davidson iterations -------------------------

    State    Exc. energy (eV)      Convergence (eV)
        1       7.3547784             2.1147E-14
        2       9.2745131            -3.0211E-15
        3       9.4256061            -2.4169E-14
        4      11.1591548            -6.0421E-15
        5      12.9464868            -4.5316E-15
        6      14.4271951            -9.0632E-15
        7      15.9844676            -9.0632E-15
        8      16.8340677            -2.1147E-14
        9      17.1359454            -1.2084E-14
       10      17.1701027            -1.5105E-14
 
             7           457.8          8.8818E-16                     10
 
 -------------------------------------------------------------------------------
 -  TDDFPT run converged in 7 iteration(s) 
 -------------------------------------------------------------------------------

 R-TDDFPT states of multiplicity 3
 Transition dipoles calculated using length formulation

         State    Excitation        Transition dipole (a.u.)        Oscillator
         number   energy (eV)       x           y           z     strength (a.u.)
         ------------------------------------------------------------------------
 TDDFPT|      1       7.35478   0.0000E+00  0.0000E+00  0.0000E+00   0.00000E+00
 TDDFPT|      2       9.27451   0.0000E+00  0.0000E+00  0.0000E+00   0.00000E+00
 TDDFPT|      3       9.42561   0.0000E+00  0.0000E+00  0.0000E+00   0.00000E+00
 TDDFPT|      4      11.15915   0.0000E+00  0.0000E+00  0.0000E+00   0.00000E+00
 TDDFPT|      5      12.94649   0.0000E+00  0.0000E+00  0.0000E+00   0.00000E+00
 TDDFPT|      6      14.42720   0.0000E+00  0.0000E+00  0.0000E+00   0.00000E+00
 TDDFPT|      7      15.98447   0.0000E+00  0.0000E+00  0.0000E+00   0.00000E+00
 TDDFPT|      8      16.83407   0.0000E+00  0.0000E+00  0.0000E+00   0.00000E+00
 TDDFPT|      9      17.13595   0.0000E+00  0.0000E+00  0.0000E+00   0.00000E+00
 TDDFPT|     10      17.17010   0.0000E+00  0.0000E+00  0.0000E+00   0.00000E+00

 TDDFPT : CheckSum  =  0.158345E+01
 
 -------------------------------------------------------------------------------
 -                            Excitation analysis                              -
 -------------------------------------------------------------------------------
        State             Occupied              Virtual             Excitation
        number             orbital              orbital             amplitude
 -------------------------------------------------------------------------------
             1   7.35478 eV
                                 5                    6              -0.995536
                                 5                   10               0.068329
             2   9.27451 eV
                                 5                    7              -0.990588
                                 5                    8              -0.101831
                                 5                   13              -0.083402
             3   9.42561 eV
                                 4                    6               0.991710
                                 4                   10              -0.073854
                                 3                    7              -0.061539
             4  11.15915 eV
                                 4                    7               0.963712
                                 3                    6              -0.198691
                                 4                    8               0.143126
                                 4                   13               0.081272
             5  12.94649 eV
                                 3                    6               0.969062
                                 4                    7               0.210021
                                 3                   10              -0.104280
             6  14.42720 eV
                                 3                    7              -0.967528
                                 3                    8              -0.154161
                                 3                   13              -0.112521
                                 5                   11               0.089395
                                 4                    6              -0.076287
                                 4                   10              -0.069190
                                 4                    9              -0.056432
                                 2                    6               0.056186
             7  15.98447 eV
                                 5                    8              -0.993304
                                 5                    7               0.104773
             8  16.83407 eV
                                 5                    9               0.924169
                                 5                   10               0.350337
                                 4                   11              -0.122074
                                 5                    6               0.056457
             9  17.13595 eV
                                 5                   10               0.931364
                                 5                    9              -0.355991
                                 5                    6               0.053664
            10  17.17010 eV
                                 5                   11               0.958018
                                 4                    9              -0.244118
                                 3                    7               0.113255
                                 2                    6               0.057940
 -------------------------------------------------------------------------------
 
 -------------------------------------------------------------------------------
 -                            Natural Orbital analysis                         -
 -------------------------------------------------------------------------------
   STATE NR.      1             7.35478 eV
     Particle-Hole state: 1   Spin:1     Eigenvalue: 0.99941   Sum Eigv: 0.99941
   STATE NR.      2             9.27451 eV
     Particle-Hole state: 1   Spin:1     Eigenvalue: 0.99925   Sum Eigv: 0.99925
   STATE NR.      3             9.42561 eV
     Particle-Hole state: 1   Spin:1     Eigenvalue: 0.99453   Sum Eigv: 0.99453
   STATE NR.      4            11.15915 eV
     Particle-Hole state: 1   Spin:1     Eigenvalue: 0.95674   Sum Eigv: 0.95674
     Particle-Hole state: 2   Spin:1     Eigenvalue: 0.04292   Sum Eigv: 0.99967
   STATE NR.      5            12.94649 eV
     Particle-Hole state: 1   Spin:1     Eigenvalue: 0.95269   Sum Eigv: 0.95269
     Particle-Hole state: 2   Spin:1     Eigenvalue: 0.04617   Sum Eigv: 0.99886
   STATE NR.      6            14.42720 eV
     Particle-Hole state: 1   Spin:1     Eigenvalue: 0.97353   Sum Eigv: 0.97353
     Particle-Hole state: 2   Spin:1     Eigenvalue: 0.01474   Sum Eigv: 0.98826
   STATE NR.      7            15.98447 eV
     Particle-Hole state: 1   Spin:1     Eigenvalue: 0.99896   Sum Eigv: 0.99896
   STATE NR.      8            16.83407 eV
     Particle-Hole state: 1   Spin:1     Eigenvalue: 0.98484   Sum Eigv: 0.98484
   STATE NR.      9            17.13595 eV
     Particle-Hole state: 1   Spin:1     Eigenvalue: 0.99911   Sum Eigv: 0.99911
   STATE NR.     10            17.17010 eV
     Particle-Hole state: 1   Spin:1     Eigenvalue: 0.91932   Sum Eigv: 0.91932
     Particle-Hole state: 2   Spin:1     Eigenvalue: 0.06295   Sum Eigv: 0.98227
 -------------------------------------------------------------------------------
 
                       triplet excitations finished                             
                                                                                
 -------------------------------------------------------------------------------
 -                      TDDFPT SINGLET ENERGIES                                -
 -------------------------------------------------------------------------------
 
 -------------------------------------------------------------------------------
 -                            TDDFPT Initial Guess                             -
 -------------------------------------------------------------------------------
          State         Occupied      ->      Virtual          Excitation
          number         orbital              orbital          energy (eV)
 -------------------------------------------------------------------------------
             1                5                    6             10.06755
             2                5                    7             11.83957
             3                4                    6             12.16092
             4                4                    7             13.93294
             5                3                    6             15.87729
             6                3                    7             17.64931
             7                5                    8             18.74595
             8                5                    9             19.94769
             9                5                   10             20.09394
            10                4                    8             20.83932

      Number of active states:                                        270
 -------------------------------------------------------------------------------
 
 -------------------------------------------------------------------------------
 -                      TDDFPT WAVEFUNCTION OPTIMIZATION                       -
 -------------------------------------------------------------------------------

          Step            Time         Convergence           Conv. states
 -------------------------------------------------------------------------------

    State    Exc. energy (eV)      Convergence (eV)
        1       8.0683804            -1.9992E+00
        2       9.7374565            -2.1021E+00
        3      10.5176077            -1.6433E+00
        4      12.2368197            -1.6961E+00
        5      14.0801502            -1.7971E+00
        6      16.2769924            -1.3723E+00
        7      17.3652326            -1.3807E+00
        8      17.8003491            -2.1473E+00
        9      18.1623811            -1.9316E+00
       10      19.7676941            -1.0716E+00
 
             1           520.6          7.8913E-02                      0

    State    Exc. energy (eV)      Convergence (eV)
        1       8.0405776            -2.7803E-02
        2       9.6922772            -4.5179E-02
        3      10.3583409            -1.5927E-01
        4      12.1226031            -1.1422E-01
        5      14.0400539            -4.0096E-02
        6      16.2361958            -4.0797E-02
        7      16.2582487            -1.1070E+00
        8      17.3319366            -4.6841E-01
        9      17.9653420            -1.9704E-01
       10      19.1395670            -6.2813E-01
 
             2           522.6          4.0681E-02                      0

    State    Exc. energy (eV)      Convergence (eV)
        1       8.0404845            -9.3073E-05
        2       9.6921629            -1.1427E-04
        3      10.3536493            -4.6916E-03
        4      12.1207712            -1.8319E-03
        5      14.0396186            -4.3538E-04
        6      16.2144983            -2.1697E-02
        7      16.2581878            -6.0933E-05
        8      17.3314788            -4.5783E-04
        9      17.9622437            -3.0983E-03
       10      19.1329244            -6.6426E-03
 
             3           537.6          7.9737E-04                      0

    State    Exc. energy (eV)      Convergence (eV)
        1       8.0404843            -1.6353E-07
        2       9.6921628            -1.2480E-07
        3      10.3535915            -5.7834E-05
        4      12.1207687            -2.4810E-06
        5      14.0396171            -1.4747E-06
        6      16.2136616            -8.3671E-04
        7      16.2581872            -5.4776E-07
        8      17.3314680            -1.0773E-05
        9      17.9621340            -1.0970E-04
       10      19.1328134            -1.1097E-04
 
             4           559.7          3.0749E-05                      2

    State    Exc. energy (eV)      Convergence (eV)
        1       8.0404843            -1.7019E-10
        2       9.6921628            -2.1232E-10
        3      10.3535911            -3.6507E-07
        4      12.1207687            -2.5410E-09
        5      14.0396171            -4.6038E-09
        6      16.2135980            -6.3598E-05
        7      16.2581872            -8.7172E-10
        8      17.3314680            -3.3360E-08
        9      17.9621329            -1.0690E-06
       10      19.1328114            -2.0349E-06
 
             5           558.4          2.3372E-06                      6

    State    Exc. energy (eV)      Convergence (eV)
        1       8.0404843            -3.6253E-14
        2       9.6921628            -1.5407E-13
        3      10.3535911            -3.8102E-09
        4      12.1207687            -3.6933E-12
        5      14.0396171            -8.6282E-12
        6      16.2135953            -2.6944E-06
        7      16.2581872            -2.2537E-12
        8      17.3314680            -4.3262E-11
        9      17.9621329            -6.0409E-10
       10      19.1328114            -1.2960E-08
 
             6           487.1          9.9018E-08                      9
 ------------------------- Restart Davidson iterations -------------------------

    State    Exc. energy (eV)      Convergence (eV)
        1       8.0404843             4.5316E-15
        2       9.6921628            -1.9637E-14
        3      10.3535911            -1.5105E-14
        4      12.1207687            -1.6616E-14
        5      14.0396171            -3.0211E-15
        6      16.2135953             3.9274E-14
        7      16.2581872             1.8126E-14
        8      17.3314680            -7.8548E-14
        9      17.9621329            -4.5316E-14
       10      19.1328114             3.3232E-14
 
             7           493.2          2.8866E-15                     10
 
 -------------------------------------------------------------------------------
 -  TDDFPT run converged in 7 iteration(s) 
 -------------------------------------------------------------------------------

 R-TDDFPT states of multiplicity 1
 Transition dipoles calculated using length formulation

         State    Excitation        Transition dipole (a.u.)        Oscillator
         number   energy (eV)       x           y           z     strength (a.u.)
         ------------------------------------------------------------------------
 TDDFPT|      1       8.04048   1.3347E-07 -4.7578E-01 -1.8749E-07   4.45917E-02
 TDDFPT|      2       9.69216   2.6408E-07  7.6689E-09 -3.4949E-08   1.68641E-14
 TDDFPT|      3      10.35359  -1.0686E-07  1.9560E-08 -6.6642E-01   1.12653E-01
 TDDFPT|      4      12.12077  -4.3319E-01  1.5500E-08 -9.8082E-08   5.57238E-02
 TDDFPT|      5      14.03962   8.6210E-01 -1.4735E-08 -1.1024E-09   2.55643E-01
 TDDFPT|      6      16.21360   3.6428E-09 -1.4971E-08  5.0077E-01   9.96113E-02
 TDDFPT|      7      16.25819   1.9860E-08 -3.6652E-08  1.2478E-07   6.89352E-15
 TDDFPT|      8      17.33147   3.1814E-09 -1.5093E-01  9.1310E-08   9.67236E-03
 TDDFPT|      9      17.96213  -2.8914E-10 -4.2286E-01 -8.6018E-08   7.86864E-02
 TDDFPT|     10      19.13281   5.3413E-01  1.4116E-08  2.7963E-07   1.33730E-01

 TDDFPT : CheckSum  =  0.169450E+01
 
 -------------------------------------------------------------------------------
[...]
 flops    45 x     5 x    31               502200       0.0%    100.0%      0.0%
 flops    14 x    31 x     5              1280300       0.0%    100.0%      0.0%
 flops    31 x    14 x     5              1280300       0.0%    100.0%      0.0%
 flops    14 x    14 x     5              1734600       0.0%    100.0%      0.0%
 flops    31 x    31 x     5              2834950       0.0%    100.0%      0.0%
 flops     5 x     5 x    14              2879800       0.0%    100.0%      0.0%
 flops     5 x     5 x    31              3188350       0.0%    100.0%      0.0%
 flops    14 x     5 x    14              8549520       0.0%    100.0%      0.0%
 flops    31 x     5 x    14              9035880       0.0%    100.0%      0.0%
 flops    14 x     5 x    31              9192120       0.0%    100.0%      0.0%
 flops    31 x     5 x    31             10609440       0.0%    100.0%      0.0%
 flops inhomo. stacks                           0       0.0%      0.0%      0.0%
 flops total                        53.284302E+06       0.0%    100.0%      0.0%
 flops max/rank                     28.784590E+06       0.0%    100.0%      0.0%
 matmuls inhomo. stacks                         0       0.0%      0.0%      0.0%
 matmuls total                              18049       0.0%    100.0%      0.0%
 number of processed stacks                 16849       0.0%    100.0%      0.0%
 average stack size                                     0.0       1.1       0.0
 marketing flops                    57.766088E+06
 -------------------------------------------------------------------------------
 # multiplications                           1528
 max memory usage/rank               1.511571E+09
 # max total images/rank                        2
 # max 3D layers                                1
 # MPI messages exchanged                 5671936
 MPI messages size (bytes):
  total size                       451.730976E+06
  min size                           0.000000E+00
  max size                          11.160000E+03
  average size                      79.643173E+00
 MPI breakdown and total messages size (bytes):
             size <=      128             5525999                        0
       128 < size <=     8192              131612                291863944
      8192 < size <=    32768               14325                159867000
     32768 < size <=   131072                   0                        0
    131072 < size <=  4194304                   0                        0
   4194304 < size <= 16777216                   0                        0
  16777216 < size                               0                        0
 -------------------------------------------------------------------------------

 *** WARNING in dbcsr_mm.F:291 :: Using a non-square number of MPI ranks ***
 *** might lead to poor performance. Used ranks: 128 Suggested: 121 256  ***

 -------------------------------------------------------------------------------
 -                                                                             -
 -                      DBCSR MESSAGE PASSING PERFORMANCE                      -
 -                                                                             -
 -------------------------------------------------------------------------------
 ROUTINE             CALLS      AVE VOLUME [Bytes]
 MP_Bcast               24                     12.
 MP_Allreduce         6305                      8.
 MP_Alltoall         27759                  36905.
 MP_ISend            95346                    394.
 MP_IRecv            94682                    283.
 -------------------------------------------------------------------------------

 -------------------------------------------------------------------------------
 -                                                                             -
 -                                DBM STATISTICS                               -
 -                                                                             -
 -------------------------------------------------------------------------------
    M  x    N  x    K                                          COUNT     PERCENT
 -------------------------------------------------------------------------------

 -------------------------------------------------------------------------------
 -                                                                             -
 -                                GRID STATISTICS                              -
 -                                                                             -
 -------------------------------------------------------------------------------
 LP    KERNEL             BACKEND                              COUNT     PERCENT
 2     collocate general  CPU                                  33024      18.75%
 2     integrate general  CPU                                  32256      18.31%
 1     collocate ortho    CPU                                  16014       9.09%
 1     integrate ortho    CPU                                  15708       8.92%
 2     collocate ortho    CPU                                  14287       8.11%
 2     integrate ortho    CPU                                  14014       7.96%
 0     collocate ortho    CPU                                  12717       7.22%
 0     integrate ortho    CPU                                  12474       7.08%
 3     collocate ortho    CPU                                   8164       4.63%
 3     integrate ortho    CPU                                   8008       4.55%
 4     collocate ortho    CPU                                   3297       1.87%
 4     integrate ortho    CPU                                   3234       1.84%
 5     collocate ortho    CPU                                    942       0.53%
 5     integrate ortho    CPU                                    924       0.52%
 0     collocate general  CPU                                    384       0.22%
 0     integrate general  CPU                                    384       0.22%
 6     collocate ortho    CPU                                    157       0.09%
 6     integrate ortho    CPU                                    154       0.09%
 -------------------------------------------------------------------------------

 MEMORY| Estimated peak process memory [MiB]                                1442

 -------------------------------------------------------------------------------
 ----                             MULTIGRID INFO                            ----
 -------------------------------------------------------------------------------
 count for grid        1:         324025          cutoff [a.u.]          600.00
 count for grid        2:          82052          cutoff [a.u.]          200.00
 count for grid        3:          64138          cutoff [a.u.]           66.67
 count for grid        4:          13467          cutoff [a.u.]           22.22
 count for grid        5:           1280          cutoff [a.u.]            7.41
 total gridlevel count  :         484962

 -------------------------------------------------------------------------------
 -                                                                             -
 -                         MESSAGE PASSING PERFORMANCE                         -
 -                                                                             -
 -------------------------------------------------------------------------------

 ROUTINE             CALLS      AVE VOLUME [Bytes]
 MP_Group                6
 MP_Bcast             1261                 285094.
 MP_Allreduce         7614                   5125.
 MP_Sync              1550
 MP_Alltoall          4134               18499643.
 MP_SendRecv         59817                 127152.
 MP_ISendRecv       133604                  60140.
 MP_Wait            170513
 MP_comm_split          72
 MP_ISend            30794                 611371.
 MP_IRecv            33422                 563242.
 -------------------------------------------------------------------------------


 -------------------------------------------------------------------------------
 -                                                                             -
 -                           R E F E R E N C E S                               -
 -                                                                             -
 -------------------------------------------------------------------------------
 
 CP2K version 2024.1 (Development Version), the CP2K developers group (2024).
 CP2K is freely available from https://www.cp2k.org/ .

 Kuehne,Thomas D.; Iannuzzi,Marcella; Del Ben,Mauro;
 Rybkin,Vladimir V.; Seewald,Patrick; Stein,Frederick; Laino,Teodoro;
 Khaliullin,Rustam Z.; Schuett,Ole; Schiffmann,Florian; Golze,Dorothea;
 Wilhelm,Jan; Chulkov,Sergey; Bani-Hashemian,Mohammad Hossein;
 Weber,Valery; Borstnik,Urban; Taillefumier,Mathieu;
 Jakobovits,Alice Shoshana; Lazzaro,Alfio; Pabst,Hans; Mueller,Tiziano;
 Schade,Robert; Guidon,Manuel; Andermatt,Samuel; Holmberg,Nico;
 Schenter,Gregory K.; Hehn,Anna; Bussy,Augustin; Belleflamme,Fabian;
 Tabacchi,Gloria; Gloess,Andreas; Lass,Michael; Bethune,Iain;
 Mundy,Christopher J.; Plessl,Christian; Watkins,Matt;
 VandeVondele,Joost; Krack,Matthias; Hutter,Juerg. 
 The Journal of Chemical Physics, 152 (19), (2020). 
 CP2K: An electronic structure and molecular dynamics software package -
 Quickstep: Efficient and accurate electronic structure calculations.
 https://doi.org/10.1063/5.0007045

 Schuett, Ole; Messmer, Peter; Hutter, Juerg; VandeVondele, Joost. 
 Electronic Structure Calculations on Graphics Processing Units, John
 Wiley & Sons, Ltd, 173-190 (2016). 
 GPU-Accelerated Sparse Matrix-Matrix Multiplication for
 Linear Scaling Density Functional Theory.
 https://doi.org/10.1002/9781118670712.ch8

 Heinecke, A; Henry, G; Hutchinson, M; Pabst, H. 
 Proceedings of Intl. Supercomputing Conference, 981-991 (2016). 
 LIBXSMM: Accelerating Small Matrix Multiplications
 by Runtime Code Generation.
 https://doi.org/10.1109/SC.2016.83

 Borstnik, U; VandeVondele, J; Weber, V; Hutter, J. 
 PARALLEL COMPUTING, 40 (5-6), 47-58 (2014). 
 Sparse matrix multiplication: The distributed block-compressed sparse
 row library.
 https://doi.org/10.1016/j.parco.2014.03.012

 Hutter, J; Iannuzzi, M; Schiffmann, F; VandeVondele, J. 
 WIREs Comput Mol Sci., 4 (1), 15-25 (2014). 
 CP2K: atomistic simulations of condensed matter systems.
 https://doi.org/10.1002/wcms.1159

 Guidon, M; Hutter, J; VandeVondele, J. 
 JOURNAL OF CHEMICAL THEORY AND COMPUTATION, 5 (11), 3010-3021 (2009). 
 Robust Periodic Hartree-Fock Exchange for Large-Scale Simulations Using
 Gaussian Basis Sets.
 https://doi.org/10.1021/ct900494g

 Guidon, M; Schiffmann, F; Hutter, J; VandeVondele, J. 
 JOURNAL OF CHEMICAL PHYSICS, 128 (21), 214104 (2008). 
 Ab initio molecular dynamics using hybrid density functionals.
 https://doi.org/10.1063/1.2931945

 Frigo, M; Johnson, SG. 
 PROCEEDINGS OF THE IEEE, 93 (2), 216-231 (2005). 
 The design and implementation of FFTW3.
 https://doi.org/10.1109/JPROC.2004.840301

 Iannuzzi, M; Chassaing, T; Wallman, T; Hutter, J. 
 CHIMIA, 59 (7-8), 499-503 (2005). 
 Ground and excited state density functional calculations with the
 Gaussian and augmented-plane-wave method.
 https://doi.org/10.2533/000942905777676164

 VandeVondele, J; Hutter, J. 
 JOURNAL OF CHEMICAL PHYSICS, 118 (10), 4365-4369 (2003). 
 An efficient orbital transformation method for electronic structure
 calculations.
 https://doi.org/10.1063/1.1543154

 Martin,Richard L.. 
 The Journal of Chemical Physics, 118 (11), 4775-4777 (2003). 
 Natural transition orbitals.
 https://doi.org/10.1063/1.1558471

 Lippert, G; Hutter, J; Parrinello, M. 
 THEORETICAL CHEMISTRY ACCOUNTS, 103 (2), 124-140 (1999). 
 The Gaussian and augmented-plane-wave density functional method for ab
 initio molecular dynamics simulations.
 https://doi.org/10.1007/s002140050523

 Krack, M; Parrinello, M. 
 PHYSICAL CHEMISTRY CHEMICAL PHYSICS, 2 (10), 2105-2112 (2000). 
 All-electron ab-initio molecular dynamics.
 https://doi.org/10.1039/b001167n

 Martyna, GJ; Tuckerman, ME. 
 JOURNAL OF CHEMICAL PHYSICS, 110 (6), 2810-2821 (1999). 
 A reciprocal space based method for treating long range interactions in
 ab initio and force-field-based calculations in clusters.
 https://doi.org/10.1063/1.477923

 Perdew, JP; Burke, K; Ernzerhof, M. 
 PHYSICAL REVIEW LETTERS, 77 (18), 3865-3868 (1996). 
 Generalized gradient approximation made simple.
 https://doi.org/10.1103/PhysRevLett.77.3865


 -------------------------------------------------------------------------------
 -                                                                             -
 -                                T I M I N G                                  -
 -                                                                             -
 -------------------------------------------------------------------------------
 SUBROUTINE                       CALLS  ASD         SELF TIME        TOTAL TIME
                                MAXIMUM       AVERAGE  MAXIMUM  AVERAGE  MAXIMUM
 CP2K                                 1  1.0    4.197    4.342 8937.612 8937.681
 qs_energies                          1  2.0    0.036    0.078 8877.126 8877.185
 qs_energies_properties               1  3.0    0.000    0.013 7988.424 7988.476
 tddfpt                               1  4.0    0.050    0.132 7988.423 7988.476
 tddfpt_soc_energies                  1  5.0    0.006    0.055 7959.825 7959.878
 tddfpt_energies                      2  6.0    0.004    0.069 7876.774 7876.861
 tddfpt_davidson_solver               4  7.0    0.030    0.112 7266.255 7266.313
 tddfpt_compute_Aop_evects           14  8.0    0.001    0.013 6482.650 6482.966
 fhxc_kernel                         14  9.0    0.023    0.076 4457.984 4458.289
 mp_waitall_1                    308227 14.4 2414.859 2463.784 2414.859 2463.784
 qs_rho_update_rho_low              157  9.5    0.019    0.077 1926.751 1930.533
 calculate_rho_elec                 157 10.5    0.355    0.531 1827.489 1829.252
 density_rs2pw                      157 11.5    0.017    0.061 1801.797 1805.476
 integrate_v_rspace                 154  9.9    0.006    0.043 1778.103 1781.830
 potential_pw2rs                    154 10.9    0.038    0.089 1726.596 1734.608
 tddfpt_apply_hfx                    14  9.0    0.006    0.046 1731.418 1731.528
 cp_dbcsr_sm_fm_multiply            883  9.5    0.011    0.049 1717.295 1729.255
 transfer_rs2pw                     872 12.4    0.010    0.034 1665.157 1676.941
 transfer_pw2rs                     855 11.9    0.007    0.025 1627.041 1644.033
 dbcsr_complete_redistribute       2841 11.5    0.076    0.313 1375.021 1399.721
 mp_sendrecv_dv                   59817 14.5 1252.067 1265.462 1252.067 1265.462
 integrate_four_center              294 10.9    0.078    0.161 1125.979 1129.698
 tddft_hfx_matrix                   280 10.0    0.010    0.035 1042.415 1046.114
 copy_dbcsr_to_fm                   944 10.4    0.008    0.033  981.006  996.098
 transfer_pw2rs_70                  154 12.9    4.081    5.489  899.412  940.816
 scf_env_do_scf                       1  3.0    0.002    0.068  858.547  858.580
 dbcsr_multiply_generic            1528 11.1    0.063    0.207  774.172  797.019
 scf_env_do_scf_inner_loop           14  4.0    0.014    0.462  780.797  780.836
 transfer_rs2pw_70                  157 13.5    2.598    4.188  743.941  760.073
 pw_transfer                       3437 12.3    0.291    0.437  684.100  694.999
 fft_wrap_pw1pw2                   3183 13.4    0.031    0.106  682.952  694.196
 copy_fm_to_dbcsr                  1893 10.6    0.006    0.056  643.970  668.470
 fft3d_ps                          3183 15.4   72.008   78.377  643.759  655.689
 mp_alltoall_d11v                 11708 12.8  605.417  652.658  605.417  652.658
 mp_waitany                       30794 14.1  597.510  633.195  597.510  633.195
 integrate_four_center_getP         294 11.9    0.030    0.045  580.457  583.755
 tddfpt_orthonormalize_psi1_psi      16  7.9    0.008    0.038  515.590  517.252
 tddfpt_print_nto_analysis            2  7.0    0.010    0.047  516.181  516.393
 cp_fm_syevd                         72  9.1    0.008    0.048  509.522  510.271
 integrate_four_center_dist_KS      294 11.9    0.038    0.073  508.500  508.989
 mp_alltoall_i11v                  9507 12.5  489.814  491.209  489.814  491.209
 fft_wrap_pw1pw2_600               1938 14.5    7.132    8.276  472.464  483.355
 mp_alltoall_z22v                  3183 17.4  460.442  474.347  460.442  474.347
 cp_fm_redistribute_end              72 10.1  229.010  412.214  233.295  414.598
 cp_dbcsr_sm_fm_multiply_core       883 10.5    0.002    0.040  360.104  381.032
 mp_sum_l                          6180 11.3  365.076  377.757  365.076  377.757
 cp_fm_syevd_base                    72 10.1  178.603  360.981  178.603  360.981
 cp_fm_geeig                         20  8.0    0.006    0.027  328.736  328.974
 tddfpt_apply_xc_analytic           140 10.0    1.146    1.767  324.977  326.353
 qs_ks_update_qs_env                 15  5.0    0.000    0.013  324.937  325.460
 rebuild_ks_matrix                   14  6.0    0.004    0.024  322.870  323.405
 qs_ks_build_kohn_sham_matrix        14  7.0    0.026    0.078  322.866  323.405
 qs_scf_new_mos                      14  5.0    0.000    0.011  309.996  310.234
 qs_scf_loop_do_ot                   14  6.0    0.000    0.000  309.996  310.234
 mp_cart_sub                       1896 12.4  304.626  305.930  304.626  305.930
 ot_scf_mini                         14  7.0    0.001    0.013  300.910  301.105
 tddfpt_apply_energy_diff            14  9.0    0.000    0.001  293.248  293.367
 cp_dbcsr_plus_fm_fm_t_native       141 10.0    0.006    0.035  282.236  283.818
 xc_pw_derive                      1143 11.7    0.027    0.065  279.568  283.200
 transfer_pw2rs_30                  154 12.9    0.420    0.473  260.211  277.982
 transfer_rs2pw_30                  157 13.5    0.319    0.356  257.968  272.411
 dbcsr_desymmetrize_deep            945 11.4    0.015    0.057  251.609  266.539
 mp_sum_dv                         4456 10.2  260.346  264.692  260.346  264.692
 transfer_rs2pw_10                  157 13.5    0.073    0.100  253.148  262.214
 mp_sync                           1550 12.6  220.415  246.116  220.415  246.116
 yz_to_x                           1177 16.9    6.056    7.162  230.324  243.050
 cp_fm_trace_a1b1t1_aa             3880  9.0    0.009    0.073  232.949  235.777
 transfer_pw2rs_10                  154 12.9    0.103    0.132  229.286  235.416
 x_to_yz                           1384 16.0    9.640   12.673  218.330  220.831
 mp_alltoall_i22                   3799 12.5  197.363  220.524  197.363  220.524
 transfer_rs2pw_600                 244 13.2    6.476    8.446  212.344  220.235
 mp_sum_dm                         1311 11.4  204.862  219.651  204.862  219.651
 multiply_cannon                   1528 12.1    0.078    0.134  202.014  217.445
 transfer_rs2pw_200                 157 13.5    1.342    2.068  197.745  206.852
 tddfpt_compute_residual_vects       10  8.0    0.000    0.000  186.711  187.156
 transfer_pw2rs_200                 154 12.9    1.481    2.082  144.668  184.452
 -------------------------------------------------------------------------------

 The number of warnings for this run is : 1
 
 -------------------------------------------------------------------------------
  **** **** ******  **  PROGRAM ENDED AT                 2024-02-05 14:41:48.929
 ***** ** ***  *** **   PROGRAM RAN ON                               nesh-srp247
 **    ****   ******    PROGRAM RAN BY                                  suphc355
 ***** **    ** ** **   PROGRAM PROCESS ID                               3694570
  **** **  *******  **  PROGRAM STOPPED IN /gxfs_work/cau/suphc355/homologes/H2X
                                           /AE/O
