 DBCSR| CPU Multiplication driver                                           XSMM (U)
 DBCSR| Multrec recursion limit                                              512 (U)
 DBCSR| Multiplication stack size                                           1000 (D)
 DBCSR| Maximum elements for images                                    UNLIMITED (U)
 DBCSR| Multiplicative factor virtual images                                   1 (U)
 DBCSR| Use multiplication densification                                       T (D)
 DBCSR| Multiplication size stacks                                             3 (U)
 DBCSR| Use memory pool for CPU allocation                                     F (U)
 DBCSR| Number of 3D layers                                               SINGLE (U)
 DBCSR| Use MPI memory allocation                                              F (U)
 DBCSR| Use RMA algorithm                                                      F (U)
 DBCSR| Use Communication thread                                               T (U)
 DBCSR| Communication thread load                                             87 (D)
 DBCSR| MPI: My process id                                                     0
 DBCSR| MPI: Number of processes                                             128
 DBCSR| OMP: Current number of threads                                         1
 DBCSR| OMP: Max number of threads                                             1
 DBCSR| Split modifier for TAS multiplication algorithm                  1.0E+00 (U)


  **** **** ******  **  PROGRAM STARTED AT               2024-02-07 15:00:27.455
 ***** ** ***  *** **   PROGRAM STARTED ON                           nesh-srp116
 **    ****   ******    PROGRAM STARTED BY                              suphc355
 ***** **    ** ** **   PROGRAM PROCESS ID                               1198395
  **** **  *******  **  PROGRAM STARTED IN /gxfs_work/cau/suphc355/homologes/H2X
                                           /AE/O

 CP2K| version string:                 CP2K version 2024.1 (Development Version)
 CP2K| source code revision number:                                  git:b6f9133
 CP2K| cp2kflags: omp libint fftw3 libxc libgrpp parallel mpi_f08 scalapack cosm
 CP2K|            a xsmm spglib mkl
 CP2K| is freely available from                            https://www.cp2k.org/
 CP2K| Program compiled at                          Fr 26. Jan 09:14:30 CET 2024
 CP2K| Program compiled on                                           nesh-login3
 CP2K| Program compiled for                                                local
 CP2K| Data directory path            /gxfs_home/cau/suphc355/software/cp2k/data
 CP2K| Input file name                                                AE_aug.inp
 
 GLOBAL| Force Environment number                                              1
 GLOBAL| Basis set file name                                  ../../../basis_aug
 GLOBAL| Potential file name                                           POTENTIAL
 GLOBAL| MM Potential file name                                     MM_POTENTIAL
 GLOBAL| Coordinate file name                                            opt.xyz
 GLOBAL| Method name                                                        CP2K
 GLOBAL| Project name                                                CH2O_AE_aug
 GLOBAL| Run type                                                         ENERGY
 GLOBAL| FFT library                                                       FFTW3
 GLOBAL| Diagonalization library                                       ScaLAPACK
 GLOBAL| DGEMM library                                                      BLAS
 GLOBAL| Orthonormality check for eigenvectors                          DISABLED
 GLOBAL| Matrix multiplication library                                     COSMA
 GLOBAL| All-to-all communication in single precision                          F
 GLOBAL| FFTs using library dependent lengths                                  F
 GLOBAL| Grid backend                                                       AUTO
 GLOBAL| Global print level                                               MEDIUM
 GLOBAL| MPI I/O enabled                                                       T
 GLOBAL| Total number of message passing processes                           128
 GLOBAL| Number of threads for this process                                    1
 GLOBAL| This output is from process                                           0
 GLOBAL| Stack size for threads created by OpenMP (OMP_STACKSIZE)        default
 GLOBAL| CPU model name                              Intel(R) Xeon(R) Gold 6426Y
 GLOBAL| CPUID                                                              1003

 MEMORY| system memory details [Kb]
 MEMORY|                        rank 0           min           max       average
 MEMORY| MemTotal            263786136     263786136     263788440     263786712
 MEMORY| MemFree             242496260     242496260     242673740     242577406
 MEMORY| Buffers                989912        930544        989912        947816
 MEMORY| Cached                1090096        966116       1090096       1010626
 MEMORY| Slab                   638600        638600        697424        675819
 MEMORY| SReclaimable           192052        188560        194152        191014
 MEMORY| MemLikelyFree       244768320     244612144     244788352     244726862


 *** Fundamental physical constants (SI units) ***

 *** Literature: B. J. Mohr and B. N. Taylor,
 ***             CODATA recommended values of the fundamental physical
 ***             constants: 2006, Web Version 5.1
 ***             http://physics.nist.gov/constants

 Speed of light in vacuum [m/s]                             2.99792458000000E+08
 Magnetic constant or permeability of vacuum [N/A**2]       1.25663706143592E-06
 Electric constant or permittivity of vacuum [F/m]          8.85418781762039E-12
 Planck constant (h) [J*s]                                  6.62606896000000E-34
 Planck constant (h-bar) [J*s]                              1.05457162825177E-34
 Elementary charge [C]                                      1.60217648700000E-19
 Electron mass [kg]                                         9.10938215000000E-31
 Electron g factor [ ]                                     -2.00231930436220E+00
 Proton mass [kg]                                           1.67262163700000E-27
 Fine-structure constant                                    7.29735253760000E-03
 Rydberg constant [1/m]                                     1.09737315685270E+07
 Avogadro constant [1/mol]                                  6.02214179000000E+23
 Boltzmann constant [J/K]                                   1.38065040000000E-23
 Atomic mass unit [kg]                                      1.66053878200000E-27
 Bohr radius [m]                                            5.29177208590000E-11

 *** Conversion factors ***

 [u] -> [a.u.]                                              1.82288848426455E+03
 [Angstrom] -> [Bohr] = [a.u.]                              1.88972613288564E+00
 [a.u.] = [Bohr] -> [Angstrom]                              5.29177208590000E-01
 [a.u.] -> [s]                                              2.41888432650478E-17
 [a.u.] -> [fs]                                             2.41888432650478E-02
 [a.u.] -> [J]                                              4.35974393937059E-18
 [a.u.] -> [N]                                              8.23872205491840E-08
 [a.u.] -> [K]                                              3.15774647902944E+05
 [a.u.] -> [kJ/mol]                                         2.62549961709828E+03
 [a.u.] -> [kcal/mol]                                       6.27509468713739E+02
 [a.u.] -> [Pa]                                             2.94210107994716E+13
 [a.u.] -> [bar]                                            2.94210107994716E+08
 [a.u.] -> [atm]                                            2.90362800883016E+08
 [a.u.] -> [eV]                                             2.72113838565563E+01
 [a.u.] -> [Hz]                                             6.57968392072181E+15
 [a.u.] -> [1/cm] (wave numbers)                            2.19474631370540E+05
 [a.u./Bohr**2] -> [1/cm]                                   5.14048714338585E+03
 

 CELL_TOP| Volume [angstrom^3]:                                      8000.000000
 CELL_TOP| Vector a [angstrom    20.000     0.000     0.000   |a| =    20.000000
 CELL_TOP| Vector b [angstrom     0.000    20.000     0.000   |b| =    20.000000
 CELL_TOP| Vector c [angstrom     0.000     0.000    20.000   |c| =    20.000000
 CELL_TOP| Angle (b,c), alpha [degree]:                                90.000000
 CELL_TOP| Angle (a,c), beta  [degree]:                                90.000000
 CELL_TOP| Angle (a,b), gamma [degree]:                                90.000000
 CELL_TOP| Numerically orthorhombic:                                         YES
 CELL_TOP| Periodicity                                                      NONE
 
 GENERATE|  Preliminary Number of Bonds generated:                             0
 GENERATE|  Achieved consistency in connectivity generation.

 CELL| Volume [angstrom^3]:                                          8000.000000
 CELL| Vector a [angstrom]:      20.000     0.000     0.000   |a| =    20.000000
 CELL| Vector b [angstrom]:       0.000    20.000     0.000   |b| =    20.000000
 CELL| Vector c [angstrom]:       0.000     0.000    20.000   |c| =    20.000000
 CELL| Angle (b,c), alpha [degree]:                                    90.000000
 CELL| Angle (a,c), beta  [degree]:                                    90.000000
 CELL| Angle (a,b), gamma [degree]:                                    90.000000
 CELL| Numerically orthorhombic:                                             YES
 CELL| Periodicity                                                          NONE

 CELL_REF| Volume [angstrom^3]:                                      8000.000000
 CELL_REF| Vector a [angstrom    20.000     0.000     0.000   |a| =    20.000000
 CELL_REF| Vector b [angstrom     0.000    20.000     0.000   |b| =    20.000000
 CELL_REF| Vector c [angstrom     0.000     0.000    20.000   |c| =    20.000000
 CELL_REF| Angle (b,c), alpha [degree]:                                90.000000
 CELL_REF| Angle (a,c), beta  [degree]:                                90.000000
 CELL_REF| Angle (a,b), gamma [degree]:                                90.000000
 CELL_REF| Numerically orthorhombic:                                         YES
 CELL_REF| Periodicity                                                      NONE

 *******************************************************************************
 *******************************************************************************
 **                                                                           **
 **     #####                         ##              ##                      **
 **    ##   ##            ##          ##              ##                      **
 **   ##     ##                       ##            ######                    **
 **   ##     ##  ##   ##  ##   #####  ##  ##   ####   ##    #####    #####    **
 **   ##     ##  ##   ##  ##  ##      ## ##   ##      ##   ##   ##  ##   ##   **
 **   ##  ## ##  ##   ##  ##  ##      ####     ###    ##   ######   ######    **
 **    ##  ###   ##   ##  ##  ##      ## ##      ##   ##   ##       ##        **
 **     #######   #####   ##   #####  ##  ##  ####    ##    #####   ##        **
 **           ##                                                    ##        **
 **                                                                           **
 **                                                ... make the atoms dance   **
 **                                                                           **
 **            Copyright (C) by CP2K developers group (2000-2024)             **
 **                      J. Chem. Phys. 152, 194103 (2020)                    **
 **                                                                           **
 *******************************************************************************

 DFT| Spin restricted Kohn-Sham (RKS) calculation                            RKS
 DFT| Multiplicity                                                             1
 DFT| Number of spin states                                                    1
 DFT| Charge                                                                   0
 DFT| Self-interaction correction (SIC)                                       NO
 DFT| Cutoffs: density                                              1.000000E-10
 DFT|          gradient                                             1.000000E-10
 DFT|          tau                                                  1.000000E-10
 DFT|          cutoff_smoothing_range                               0.000000E+00
 DFT| XC density smoothing                                                  NONE
 DFT| XC derivatives                                                          PW

 FUNCTIONAL| PBE:
 FUNCTIONAL| J.P.Perdew, K.Burke, M.Ernzerhof, Phys. Rev. Letter, vol. 77, n 18,
 FUNCTIONAL|  pp. 3865-3868, (1996)sx=0.750sc=1.000{spin unpolarized}           


 QS| Method:                                                                GAPW
 QS| Density plane wave grid type                        NON-SPHERICAL FULLSPACE
 QS| Number of grid levels:                                                    5
 QS| Density cutoff [a.u.]:                                                600.0
 QS| Multi grid cutoff [a.u.]: 1) grid level                               600.0
 QS|                           2) grid level                               200.0
 QS|                           3) grid level                                66.7
 QS|                           4) grid level                                22.2
 QS|                           5) grid level                                 7.4
 QS| Grid level progression factor:                                          3.0
 QS| Relative density cutoff [a.u.]:                                        40.0
 QS| Interaction thresholds: eps_pgf_orb:                                1.0E-30
 QS|                         eps_filter_matrix:                          0.0E+00
 QS|                         eps_core_charge:                            1.0E-17
 QS|                         eps_rho_gspace:                             1.0E-15
 QS|                         eps_rho_rspace:                             1.0E-15
 QS|                         eps_gvg_rspace:                             3.2E-08
 QS|                         eps_ppl:                                    1.0E-02
 QS|                         eps_ppnl:                                   3.2E-10
 QS| GAPW|      One center basis from orbital basis primitives
 QS| GAPW|                   eps_fit:                                    1.0E-04
 QS| GAPW|                   eps_iso:                                    1.0E-12
 QS| GAPW|                   eps_svd:                                    1.0E-08
 QS| GAPW|                   eps_cpc:                                    1.0E-15
 QS| GAPW|   atom-r-grid: quadrature:                                     GC_LOG
 QS| GAPW|      atom-s-grid:  max l :                                          8
 QS| GAPW|      max_l_rho0 :                                                   2


 ATOMIC KIND INFORMATION

  1. Atomic kind: H                                     Number of atoms:       2

     Orbital Basis Set                                               aug-cc-pVQZ

       Number of orbital shell sets:                                           8
       Number of orbital shells:                                              14
       Number of primitive Cartesian functions:                               16
       Number of Cartesian basis functions:                                   55
       Number of spherical basis functions:                                   46
       Norm type:                                                              2

       Normalised Cartesian orbitals:

                        Set   Shell   Orbital            Exponent    Coefficient

                          1       1    1s               82.640000       0.000000
                                                        12.410000       0.000000
                                                         2.824000       0.000000
                                                         0.797700       0.601575
                                                         0.258100       0.000000
                                                         0.089890       0.000000

                          1       2    2s               82.640000       0.000000
                                                        12.410000       0.000000
                                                         2.824000       0.000000
                                                         0.797700       0.000000
                                                         0.258100       0.258078
                                                         0.089890       0.000000

                          1       3    3s               82.640000       0.039186
                                                        12.410000       0.072302
                                                         2.824000       0.117344
                                                         0.797700       0.154530
                                                         0.258100       0.128360
                                                         0.089890       0.034648

                          1       4    4s               82.640000       0.000000
                                                        12.410000       0.000000
                                                         2.824000       0.000000
                                                         0.797700       0.000000
                                                         0.258100       0.000000
                                                         0.089890       0.117002

                          2       1    1s                0.023630       0.042954

                          3       1    1px               2.292000       4.019836
                                                         0.838000       0.000000
                                                         0.292000       0.000000
                          3       1    1py               2.292000       4.019836
                                                         0.838000       0.000000
                                                         0.292000       0.000000
                          3       1    1pz               2.292000       4.019836
                                                         0.838000       0.000000
                                                         0.292000       0.000000

                          3       2    2px               2.292000       0.000000
                                                         0.838000       1.142865
                                                         0.292000       0.000000
                          3       2    2py               2.292000       0.000000
                                                         0.838000       1.142865
                                                         0.292000       0.000000
                          3       2    2pz               2.292000       0.000000
                                                         0.838000       1.142865
                                                         0.292000       0.000000

                          3       3    3px               2.292000       0.000000
                                                         0.838000       0.000000
                                                         0.292000       0.305963
                          3       3    3py               2.292000       0.000000
                                                         0.838000       0.000000
                                                         0.292000       0.305963
                          3       3    3pz               2.292000       0.000000
                                                         0.838000       0.000000
                                                         0.292000       0.305963

                          4       1    1px               0.084800       0.065228
                          4       1    1py               0.084800       0.065228
                          4       1    1pz               0.084800       0.065228

                          5       1    1dx2              2.062000       5.840024
                                                         0.662000       0.000000
                          5       1    1dxy              2.062000      10.115218
                                                         0.662000       0.000000
                          5       1    1dxz              2.062000      10.115218
                                                         0.662000       0.000000
                          5       1    1dy2              2.062000       5.840024
                                                         0.662000       0.000000
                          5       1    1dyz              2.062000      10.115218
                                                         0.662000       0.000000
                          5       1    1dz2              2.062000       5.840024
                                                         0.662000       0.000000

                          5       2    2dx2              2.062000       0.000000
                                                         0.662000       0.799670
                          5       2    2dxy              2.062000       0.000000
                                                         0.662000       1.385069
                          5       2    2dxz              2.062000       0.000000
                                                         0.662000       1.385069
                          5       2    2dy2              2.062000       0.000000
                                                         0.662000       0.799670
                          5       2    2dyz              2.062000       0.000000
                                                         0.662000       1.385069
                          5       2    2dz2              2.062000       0.000000
                                                         0.662000       0.799670

                          6       1    1dx2              0.190000       0.089997
                          6       1    1dxy              0.190000       0.155879
                          6       1    1dxz              0.190000       0.155879
                          6       1    1dy2              0.190000       0.089997
                          6       1    1dyz              0.190000       0.155879
                          6       1    1dz2              0.190000       0.089997

                          7       1    1fx3              1.397000       3.123535
                          7       1    1fx2y             1.397000       6.984436
                          7       1    1fx2z             1.397000       6.984436
                          7       1    1fxy2             1.397000       6.984436
                          7       1    1fxyz             1.397000      12.097399
                          7       1    1fxz2             1.397000       6.984436
                          7       1    1fy3              1.397000       3.123535
                          7       1    1fy2z             1.397000       6.984436
                          7       1    1fyz2             1.397000       6.984436
                          7       1    1fz3              1.397000       3.123535

                          8       1    1fx3              0.360000       0.147787
                          8       1    1fx2y             0.360000       0.330461
                          8       1    1fx2z             0.360000       0.330461
                          8       1    1fxy2             0.360000       0.330461
                          8       1    1fxyz             0.360000       0.572375
                          8       1    1fxz2             0.360000       0.330461
                          8       1    1fy3              0.360000       0.147787
                          8       1    1fy2z             0.360000       0.330461
                          8       1    1fyz2             0.360000       0.330461
                          8       1    1fz3              0.360000       0.147787

       Atomic covalent radius [Angstrom]:                                  0.320

       Atomic van der Waals radius [Angstrom]:                             1.090

     The atoms of this atomic kind are PAW atoms (GAPW):
       Hard Gaussian function radius:                                      1.200
       Rho0 radius:                                                        1.200
       Maximum GTO radius used for PAW projector construction:            24.566

     GAPW Soft Basis Set                                        aug-cc-pVQZ_soft

       Number of orbital shell sets:                                           8
       Number of orbital shells:                                              14
       Number of primitive Cartesian functions:                               14
       Number of Cartesian basis functions:                                   55
       Number of spherical basis functions:                                   46
       Norm type:                                                              2

       Normalised Cartesian orbitals:

                        Set   Shell   Orbital            Exponent    Coefficient

                          1       1    1s                2.824000       0.000000
                                                         0.797700       0.601575
                                                         0.258100       0.000000
                                                         0.089890       0.000000

                          1       2    2s                2.824000       0.000000
                                                         0.797700       0.000000
                                                         0.258100       0.258078
                                                         0.089890       0.000000

                          1       3    3s                2.824000       0.117344
                                                         0.797700       0.154530
                                                         0.258100       0.128360
                                                         0.089890       0.034648

                          1       4    4s                2.824000       0.000000
                                                         0.797700       0.000000
                                                         0.258100       0.000000
                                                         0.089890       0.117002

                          2       1    1s                0.023630       0.042954

                          3       1    1px               2.292000       4.019836
                                                         0.838000       0.000000
                                                         0.292000       0.000000
                          3       1    1py               2.292000       4.019836
                                                         0.838000       0.000000
                                                         0.292000       0.000000
                          3       1    1pz               2.292000       4.019836
                                                         0.838000       0.000000
                                                         0.292000       0.000000

                          3       2    2px               2.292000       0.000000
                                                         0.838000       1.142865
                                                         0.292000       0.000000
                          3       2    2py               2.292000       0.000000
                                                         0.838000       1.142865
                                                         0.292000       0.000000
                          3       2    2pz               2.292000       0.000000
                                                         0.838000       1.142865
                                                         0.292000       0.000000

                          3       3    3px               2.292000       0.000000
                                                         0.838000       0.000000
                                                         0.292000       0.305963
                          3       3    3py               2.292000       0.000000
                                                         0.838000       0.000000
                                                         0.292000       0.305963
                          3       3    3pz               2.292000       0.000000
                                                         0.838000       0.000000
                                                         0.292000       0.305963

                          4       1    1px               0.084800       0.065228
                          4       1    1py               0.084800       0.065228
                          4       1    1pz               0.084800       0.065228

                          5       1    1dx2              2.062000       5.840024
                                                         0.662000       0.000000
                          5       1    1dxy              2.062000      10.115218
                                                         0.662000       0.000000
                          5       1    1dxz              2.062000      10.115218
                                                         0.662000       0.000000
                          5       1    1dy2              2.062000       5.840024
                                                         0.662000       0.000000
                          5       1    1dyz              2.062000      10.115218
                                                         0.662000       0.000000
                          5       1    1dz2              2.062000       5.840024
                                                         0.662000       0.000000

                          5       2    2dx2              2.062000       0.000000
                                                         0.662000       0.799670
                          5       2    2dxy              2.062000       0.000000
                                                         0.662000       1.385069
                          5       2    2dxz              2.062000       0.000000
                                                         0.662000       1.385069
                          5       2    2dy2              2.062000       0.000000
                                                         0.662000       0.799670
                          5       2    2dyz              2.062000       0.000000
                                                         0.662000       1.385069
                          5       2    2dz2              2.062000       0.000000
                                                         0.662000       0.799670

                          6       1    1dx2              0.190000       0.089997
                          6       1    1dxy              0.190000       0.155879
                          6       1    1dxz              0.190000       0.155879
                          6       1    1dy2              0.190000       0.089997
                          6       1    1dyz              0.190000       0.155879
                          6       1    1dz2              0.190000       0.089997

                          7       1    1fx3              1.397000       3.123535
                          7       1    1fx2y             1.397000       6.984436
                          7       1    1fx2z             1.397000       6.984436
                          7       1    1fxy2             1.397000       6.984436
                          7       1    1fxyz             1.397000      12.097399
                          7       1    1fxz2             1.397000       6.984436
                          7       1    1fy3              1.397000       3.123535
                          7       1    1fy2z             1.397000       6.984436
                          7       1    1fyz2             1.397000       6.984436
                          7       1    1fz3              1.397000       3.123535

                          8       1    1fx3              0.360000       0.147787
                          8       1    1fx2y             0.360000       0.330461
                          8       1    1fx2z             0.360000       0.330461
                          8       1    1fxy2             0.360000       0.330461
                          8       1    1fxyz             0.360000       0.572375
                          8       1    1fxz2             0.360000       0.330461
                          8       1    1fy3              0.360000       0.147787
                          8       1    1fy2z             0.360000       0.330461
                          8       1    1fyz2             0.360000       0.330461
                          8       1    1fz3              0.360000       0.147787

     AE Potential information for                                            ALL

       Description:                                       All-electron potential
                                          Krack, Parrinello, PCCP 2, 2105 (2000)

       Gaussian exponent of the core charge distribution:              12.500000
       Electronic configuration (s p d ...):                           1   0   0

  2. Atomic kind: O                                     Number of atoms:       1

     Orbital Basis Set                                               aug-cc-pVQZ

       Number of orbital shell sets:                                          10
       Number of orbital shells:                                              20
       Number of primitive Cartesian functions:                               29
       Number of Cartesian basis functions:                                  105
       Number of spherical basis functions:                                   80
       Norm type:                                                              2

       Normalised Cartesian orbitals:

                        Set   Shell   Orbital            Exponent    Coefficient

                          1       1    1s            61420.000000       0.250256
                                                      9199.000000       0.467274
                                                      2091.000000       0.807479
                                                       590.900000       1.299881
                                                       192.300000       1.929375
                                                        69.320000       2.498458
                                                        26.970000       2.574768
                                                        11.100000       1.727188
                                                         4.682000       0.492214
                                                         1.428000       0.016380
                                                         0.554700      -0.001146
                                                         0.206700       0.000208

                          1       2    2s            61420.000000       0.000000
                                                      9199.000000       0.000000
                                                      2091.000000       0.000000
                                                       590.900000       0.000000
                                                       192.300000       0.000000
                                                        69.320000       0.000000
                                                        26.970000       0.000000
                                                        11.100000       0.000000
                                                         4.682000       0.000000
                                                         1.428000       0.931014
                                                         0.554700       0.000000
                                                         0.206700       0.000000

                          1       3    3s            61420.000000       0.000000
                                                      9199.000000       0.000000
                                                      2091.000000       0.000000
                                                       590.900000       0.000000
                                                       192.300000       0.000000
                                                        69.320000       0.000000
                                                        26.970000       0.000000
                                                        11.100000       0.000000
                                                         4.682000       0.000000
                                                         1.428000       0.000000
                                                         0.554700       0.458093
                                                         0.206700       0.000000

                          1       4    4s            61420.000000      -0.055613
                                                      9199.000000      -0.106442
                                                      2091.000000      -0.182696
                                                       590.900000      -0.299644
                                                       192.300000      -0.447389
                                                        69.320000      -0.620860
                                                        26.970000      -0.700015
                                                        11.100000      -0.659178
                                                         4.682000      -0.261625
                                                         1.428000       0.269044
                                                         0.554700       0.268501
                                                         0.206700       0.060656

                          1       5    5s            61420.000000       0.000000
                                                      9199.000000       0.000000
                                                      2091.000000       0.000000
                                                       590.900000       0.000000
                                                       192.300000       0.000000
                                                        69.320000       0.000000
                                                        26.970000       0.000000
                                                        11.100000       0.000000
                                                         4.682000       0.000000
                                                         1.428000       0.000000
                                                         0.554700       0.000000
                                                         0.206700       0.218482

                          2       1    1s                0.069590       0.096565

                          3       1    1px              63.420000       0.000000
                                                        14.660000       0.000000
                                                         4.459000       0.000000
                                                         1.531000       2.427499
                                                         0.530200       0.000000
                                                         0.175000       0.000000
                          3       1    1py              63.420000       0.000000
                                                        14.660000       0.000000
                                                         4.459000       0.000000
                                                         1.531000       2.427499
                                                         0.530200       0.000000
                                                         0.175000       0.000000
                          3       1    1pz              63.420000       0.000000
                                                        14.660000       0.000000
                                                         4.459000       0.000000
                                                         1.531000       2.427499
                                                         0.530200       0.000000
                                                         0.175000       0.000000

                          3       2    2px              63.420000       1.541868
                                                        14.660000       1.709122
                                                         4.459000       1.488326
                                                         1.531000       0.865964
                                                         0.530200       0.289113
                                                         0.175000       0.039518
                          3       2    2py              63.420000       1.541868
                                                        14.660000       1.709122
                                                         4.459000       1.488326
                                                         1.531000       0.865964
                                                         0.530200       0.289113
                                                         0.175000       0.039518
                          3       2    2pz              63.420000       1.541868
                                                        14.660000       1.709122
                                                         4.459000       1.488326
                                                         1.531000       0.865964
                                                         0.530200       0.289113
                                                         0.175000       0.039518

                          3       3    3px              63.420000       0.000000
                                                        14.660000       0.000000
                                                         4.459000       0.000000
                                                         1.531000       0.000000
                                                         0.530200       0.644896
                                                         0.175000       0.000000
                          3       3    3py              63.420000       0.000000
                                                        14.660000       0.000000
                                                         4.459000       0.000000
                                                         1.531000       0.000000
                                                         0.530200       0.644896
                                                         0.175000       0.000000
                          3       3    3pz              63.420000       0.000000
                                                        14.660000       0.000000
                                                         4.459000       0.000000
                                                         1.531000       0.000000
                                                         0.530200       0.644896
                                                         0.175000       0.000000

                          3       4    4px              63.420000       0.000000
                                                        14.660000       0.000000
                                                         4.459000       0.000000
                                                         1.531000       0.000000
                                                         0.530200       0.000000
                                                         0.175000       0.161338
                          3       4    4py              63.420000       0.000000
                                                        14.660000       0.000000
                                                         4.459000       0.000000
                                                         1.531000       0.000000
                                                         0.530200       0.000000
                                                         0.175000       0.161338
                          3       4    4pz              63.420000       0.000000
                                                        14.660000       0.000000
                                                         4.459000       0.000000
                                                         1.531000       0.000000
                                                         0.530200       0.000000
                                                         0.175000       0.161338

                          4       1    1px               0.053480       0.036659
                          4       1    1py               0.053480       0.036659
                          4       1    1pz               0.053480       0.036659

                          5       1    1dx2              3.775000      16.827288
                                                         1.300000       0.000000
                                                         0.444000       0.000000
                          5       1    1dxy              3.775000      29.145718
                                                         1.300000       0.000000
                                                         0.444000       0.000000
                          5       1    1dxz              3.775000      29.145718
                                                         1.300000       0.000000
                                                         0.444000       0.000000
                          5       1    1dy2              3.775000      16.827288
                                                         1.300000       0.000000
                                                         0.444000       0.000000
                          5       1    1dyz              3.775000      29.145718
                                                         1.300000       0.000000
                                                         0.444000       0.000000
                          5       1    1dz2              3.775000      16.827288
                                                         1.300000       0.000000
                                                         0.444000       0.000000

                          5       2    2dx2              3.775000       0.000000
                                                         1.300000       2.605016
                                                         0.444000       0.000000
                          5       2    2dxy              3.775000       0.000000
                                                         1.300000       4.512019
                                                         0.444000       0.000000
                          5       2    2dxz              3.775000       0.000000
                                                         1.300000       4.512019
                                                         0.444000       0.000000
                          5       2    2dy2              3.775000       0.000000
                                                         1.300000       2.605016
                                                         0.444000       0.000000
                          5       2    2dyz              3.775000       0.000000
                                                         1.300000       4.512019
                                                         0.444000       0.000000
                          5       2    2dz2              3.775000       0.000000
                                                         1.300000       2.605016
                                                         0.444000       0.000000

                          5       3    3dx2              3.775000       0.000000
                                                         1.300000       0.000000
                                                         0.444000       0.397493
                          5       3    3dxy              3.775000       0.000000
                                                         1.300000       0.000000
                                                         0.444000       0.688478
                          5       3    3dxz              3.775000       0.000000
                                                         1.300000       0.000000
                                                         0.444000       0.688478
                          5       3    3dy2              3.775000       0.000000
                                                         1.300000       0.000000
                                                         0.444000       0.397493
                          5       3    3dyz              3.775000       0.000000
                                                         1.300000       0.000000
                                                         0.444000       0.688478
                          5       3    3dz2              3.775000       0.000000
                                                         1.300000       0.000000
                                                         0.444000       0.397493

                          6       1    1dx2              0.154000       0.062312
                          6       1    1dxy              0.154000       0.107927
                          6       1    1dxz              0.154000       0.107927
                          6       1    1dy2              0.154000       0.062312
                          6       1    1dyz              0.154000       0.107927
                          6       1    1dz2              0.154000       0.062312

                          7       1    1fx3              2.666000      13.370258
                                                         0.859000       0.000000
                          7       1    1fx2y             2.666000      29.896805
                                                         0.859000       0.000000
                          7       1    1fx2z             2.666000      29.896805
                                                         0.859000       0.000000
                          7       1    1fxy2             2.666000      29.896805
                                                         0.859000       0.000000
                          7       1    1fxyz             2.666000      51.782785
                                                         0.859000       0.000000
                          7       1    1fxz2             2.666000      29.896805
                                                         0.859000       0.000000
                          7       1    1fy3              2.666000      13.370258
                                                         0.859000       0.000000
                          7       1    1fy2z             2.666000      29.896805
                                                         0.859000       0.000000
                          7       1    1fyz2             2.666000      29.896805
                                                         0.859000       0.000000
                          7       1    1fz3              2.666000      13.370258
                                                         0.859000       0.000000

                          7       2    2fx3              2.666000       0.000000
                                                         0.859000       1.045777
                          7       2    2fx2y             2.666000       0.000000
                                                         0.859000       2.338428
                          7       2    2fx2z             2.666000       0.000000
                                                         0.859000       2.338428
                          7       2    2fxy2             2.666000       0.000000
                                                         0.859000       2.338428
                          7       2    2fxyz             2.666000       0.000000
                                                         0.859000       4.050277
                          7       2    2fxz2             2.666000       0.000000
                                                         0.859000       2.338428
                          7       2    2fy3              2.666000       0.000000
                                                         0.859000       1.045777
                          7       2    2fy2z             2.666000       0.000000
                                                         0.859000       2.338428
                          7       2    2fyz2             2.666000       0.000000
                                                         0.859000       2.338428
                          7       2    2fz3              2.666000       0.000000
                                                         0.859000       1.045777

                          8       1    1fx3              0.324000       0.116595
                          8       1    1fx2y             0.324000       0.260715
                          8       1    1fx2z             0.324000       0.260715
                          8       1    1fxy2             0.324000       0.260715
                          8       1    1fxyz             0.324000       0.451571
                          8       1    1fxz2             0.324000       0.260715
                          8       1    1fy3              0.324000       0.116595
                          8       1    1fy2z             0.324000       0.260715
                          8       1    1fyz2             0.324000       0.260715
                          8       1    1fz3              0.324000       0.116595

                          9       1    1gx4              1.846000       6.005824
                          9       1    1gx3y             1.846000      15.889916
                          9       1    1gx3z             1.846000      15.889916
                          9       1    1gx2y2            1.846000      20.513794
                          9       1    1gx2yz            1.846000      35.530933
                          9       1    1gx2z2            1.846000      20.513794
                          9       1    1gxy3             1.846000      15.889916
                          9       1    1gxy2z            1.846000      35.530933
                          9       1    1gxyz2            1.846000      35.530933
                          9       1    1gxz3             1.846000      15.889916
                          9       1    1gy4              1.846000       6.005824
                          9       1    1gy3z             1.846000      15.889916
                          9       1    1gy2z2            1.846000      20.513794
                          9       1    1gyz3             1.846000      15.889916
                          9       1    1gz4              1.846000       6.005824

                         10       1    1gx4              0.714000       0.440662
                         10       1    1gx3y             0.714000       1.165882
                         10       1    1gx3z             0.714000       1.165882
                         10       1    1gx2y2            0.714000       1.505147
                         10       1    1gx2yz            0.714000       2.606991
                         10       1    1gx2z2            0.714000       1.505147
                         10       1    1gxy3             0.714000       1.165882
                         10       1    1gxy2z            0.714000       2.606991
                         10       1    1gxyz2            0.714000       2.606991
                         10       1    1gxz3             0.714000       1.165882
                         10       1    1gy4              0.714000       0.440662
                         10       1    1gy3z             0.714000       1.165882
                         10       1    1gy2z2            0.714000       1.505147
                         10       1    1gyz3             0.714000       1.165882
                         10       1    1gz4              0.714000       0.440662

       Atomic covalent radius [Angstrom]:                                  0.730

       Atomic van der Waals radius [Angstrom]:                             1.520

     The atoms of this atomic kind are PAW atoms (GAPW):
       Hard Gaussian function radius:                                      1.512
       Rho0 radius:                                                        1.512
       Maximum GTO radius used for PAW projector construction:            24.566

     GAPW Soft Basis Set                                        aug-cc-pVQZ_soft

       Number of orbital shell sets:                                          10
       Number of orbital shells:                                              20
       Number of primitive Cartesian functions:                               17
       Number of Cartesian basis functions:                                  105
       Number of spherical basis functions:                                   80
       Norm type:                                                              2

       Normalised Cartesian orbitals:

                        Set   Shell   Orbital            Exponent    Coefficient

                          1       1    1s                1.428000       0.016380
                                                         0.554700      -0.001146
                                                         0.206700       0.000208

                          1       2    2s                1.428000       0.931014
                                                         0.554700       0.000000
                                                         0.206700       0.000000

                          1       3    3s                1.428000       0.000000
                                                         0.554700       0.458093
                                                         0.206700       0.000000

                          1       4    4s                1.428000       0.269044
                                                         0.554700       0.268501
                                                         0.206700       0.060656

                          1       5    5s                1.428000       0.000000
                                                         0.554700       0.000000
                                                         0.206700       0.218482

                          2       1    1s                0.069590       0.096565

                          3       1    1px               1.531000       2.427499
                                                         0.530200       0.000000
                                                         0.175000       0.000000
                          3       1    1py               1.531000       2.427499
                                                         0.530200       0.000000
                                                         0.175000       0.000000
                          3       1    1pz               1.531000       2.427499
                                                         0.530200       0.000000
                                                         0.175000       0.000000

                          3       2    2px               1.531000       0.865964
                                                         0.530200       0.289113
                                                         0.175000       0.039518
                          3       2    2py               1.531000       0.865964
                                                         0.530200       0.289113
                                                         0.175000       0.039518
                          3       2    2pz               1.531000       0.865964
                                                         0.530200       0.289113
                                                         0.175000       0.039518

                          3       3    3px               1.531000       0.000000
                                                         0.530200       0.644896
                                                         0.175000       0.000000
                          3       3    3py               1.531000       0.000000
                                                         0.530200       0.644896
                                                         0.175000       0.000000
                          3       3    3pz               1.531000       0.000000
                                                         0.530200       0.644896
                                                         0.175000       0.000000

                          3       4    4px               1.531000       0.000000
                                                         0.530200       0.000000
                                                         0.175000       0.161338
                          3       4    4py               1.531000       0.000000
                                                         0.530200       0.000000
                                                         0.175000       0.161338
                          3       4    4pz               1.531000       0.000000
                                                         0.530200       0.000000
                                                         0.175000       0.161338

                          4       1    1px               0.053480       0.036659
                          4       1    1py               0.053480       0.036659
                          4       1    1pz               0.053480       0.036659

                          5       1    1dx2              3.775000      16.827288
                                                         1.300000       0.000000
                                                         0.444000       0.000000
                          5       1    1dxy              3.775000      29.145718
                                                         1.300000       0.000000
                                                         0.444000       0.000000
                          5       1    1dxz              3.775000      29.145718
                                                         1.300000       0.000000
                                                         0.444000       0.000000
                          5       1    1dy2              3.775000      16.827288
                                                         1.300000       0.000000
                                                         0.444000       0.000000
                          5       1    1dyz              3.775000      29.145718
                                                         1.300000       0.000000
                                                         0.444000       0.000000
                          5       1    1dz2              3.775000      16.827288
                                                         1.300000       0.000000
                                                         0.444000       0.000000

                          5       2    2dx2              3.775000       0.000000
                                                         1.300000       2.605016
                                                         0.444000       0.000000
                          5       2    2dxy              3.775000       0.000000
                                                         1.300000       4.512019
                                                         0.444000       0.000000
                          5       2    2dxz              3.775000       0.000000
                                                         1.300000       4.512019
                                                         0.444000       0.000000
                          5       2    2dy2              3.775000       0.000000
                                                         1.300000       2.605016
                                                         0.444000       0.000000
                          5       2    2dyz              3.775000       0.000000
                                                         1.300000       4.512019
                                                         0.444000       0.000000
                          5       2    2dz2              3.775000       0.000000
                                                         1.300000       2.605016
                                                         0.444000       0.000000

                          5       3    3dx2              3.775000       0.000000
                                                         1.300000       0.000000
                                                         0.444000       0.397493
                          5       3    3dxy              3.775000       0.000000
                                                         1.300000       0.000000
                                                         0.444000       0.688478
                          5       3    3dxz              3.775000       0.000000
                                                         1.300000       0.000000
                                                         0.444000       0.688478
                          5       3    3dy2              3.775000       0.000000
                                                         1.300000       0.000000
                                                         0.444000       0.397493
                          5       3    3dyz              3.775000       0.000000
                                                         1.300000       0.000000
                                                         0.444000       0.688478
                          5       3    3dz2              3.775000       0.000000
                                                         1.300000       0.000000
                                                         0.444000       0.397493

                          6       1    1dx2              0.154000       0.062312
                          6       1    1dxy              0.154000       0.107927
                          6       1    1dxz              0.154000       0.107927
                          6       1    1dy2              0.154000       0.062312
                          6       1    1dyz              0.154000       0.107927
                          6       1    1dz2              0.154000       0.062312

                          7       1    1fx3              2.666000      13.370258
                                                         0.859000       0.000000
                          7       1    1fx2y             2.666000      29.896805
                                                         0.859000       0.000000
                          7       1    1fx2z             2.666000      29.896805
                                                         0.859000       0.000000
                          7       1    1fxy2             2.666000      29.896805
                                                         0.859000       0.000000
                          7       1    1fxyz             2.666000      51.782785
                                                         0.859000       0.000000
                          7       1    1fxz2             2.666000      29.896805
                                                         0.859000       0.000000
                          7       1    1fy3              2.666000      13.370258
                                                         0.859000       0.000000
                          7       1    1fy2z             2.666000      29.896805
                                                         0.859000       0.000000
                          7       1    1fyz2             2.666000      29.896805
                                                         0.859000       0.000000
                          7       1    1fz3              2.666000      13.370258
                                                         0.859000       0.000000

                          7       2    2fx3              2.666000       0.000000
                                                         0.859000       1.045777
                          7       2    2fx2y             2.666000       0.000000
                                                         0.859000       2.338428
                          7       2    2fx2z             2.666000       0.000000
                                                         0.859000       2.338428
                          7       2    2fxy2             2.666000       0.000000
                                                         0.859000       2.338428
                          7       2    2fxyz             2.666000       0.000000
                                                         0.859000       4.050277
                          7       2    2fxz2             2.666000       0.000000
                                                         0.859000       2.338428
                          7       2    2fy3              2.666000       0.000000
                                                         0.859000       1.045777
                          7       2    2fy2z             2.666000       0.000000
                                                         0.859000       2.338428
                          7       2    2fyz2             2.666000       0.000000
                                                         0.859000       2.338428
                          7       2    2fz3              2.666000       0.000000
                                                         0.859000       1.045777

                          8       1    1fx3              0.324000       0.116595
                          8       1    1fx2y             0.324000       0.260715
                          8       1    1fx2z             0.324000       0.260715
                          8       1    1fxy2             0.324000       0.260715
                          8       1    1fxyz             0.324000       0.451571
                          8       1    1fxz2             0.324000       0.260715
                          8       1    1fy3              0.324000       0.116595
                          8       1    1fy2z             0.324000       0.260715
                          8       1    1fyz2             0.324000       0.260715
                          8       1    1fz3              0.324000       0.116595

                          9       1    1gx4              1.846000       6.005824
                          9       1    1gx3y             1.846000      15.889916
                          9       1    1gx3z             1.846000      15.889916
                          9       1    1gx2y2            1.846000      20.513794
                          9       1    1gx2yz            1.846000      35.530933
                          9       1    1gx2z2            1.846000      20.513794
                          9       1    1gxy3             1.846000      15.889916
                          9       1    1gxy2z            1.846000      35.530933
                          9       1    1gxyz2            1.846000      35.530933
                          9       1    1gxz3             1.846000      15.889916
                          9       1    1gy4              1.846000       6.005824
                          9       1    1gy3z             1.846000      15.889916
                          9       1    1gy2z2            1.846000      20.513794
                          9       1    1gyz3             1.846000      15.889916
                          9       1    1gz4              1.846000       6.005824

                         10       1    1gx4              0.714000       0.440662
                         10       1    1gx3y             0.714000       1.165882
                         10       1    1gx3z             0.714000       1.165882
                         10       1    1gx2y2            0.714000       1.505147
                         10       1    1gx2yz            0.714000       2.606991
                         10       1    1gx2z2            0.714000       1.505147
                         10       1    1gxy3             0.714000       1.165882
                         10       1    1gxy2z            0.714000       2.606991
                         10       1    1gxyz2            0.714000       2.606991
                         10       1    1gxz3             0.714000       1.165882
                         10       1    1gy4              0.714000       0.440662
                         10       1    1gy3z             0.714000       1.165882
                         10       1    1gy2z2            0.714000       1.505147
                         10       1    1gyz3             0.714000       1.165882
                         10       1    1gz4              0.714000       0.440662

     AE Potential information for                                            ALL

       Description:                                       All-electron potential
                                          Krack, Parrinello, PCCP 2, 2105 (2000)

       Gaussian exponent of the core charge distribution:               8.154466
       Electronic configuration (s p d ...):                           4   4   0


 MOLECULE KIND INFORMATION


 All atoms are their own molecule, skipping detailed information


 TOTAL NUMBERS AND MAXIMUM NUMBERS

  Total number of            - Atomic kinds:                                   2
                             - Atoms:                                          3
                             - Shell sets:                                    26
                             - Shells:                                        48
                             - Primitive Cartesian functions:                 61
                             - Cartesian basis functions:                    215
                             - Spherical basis functions:                    172

  Maximum angular momentum of the orbital basis functions:                     4


 MODULE QUICKSTEP: ATOMIC COORDINATES IN ANGSTROM

   Atom Kind Element         X             Y             Z       Z(eff)     Mass
      1    1 H     1     10.765254     10.000000     10.298513   1.0000   1.0079
      2    1 H     1      9.234746     10.000000     10.298513   1.0000   1.0079
      3    2 O     8     10.000000     10.000000      9.701487   8.0000  15.9994



 SCF PARAMETERS         Density guess:                                   RESTART
                        --------------------------------------------------------
                        max_scf:                                              20
                        max_scf_history:                                       0
                        max_diis:                                              4
                        --------------------------------------------------------
                        eps_scf:                                        1.00E-07
                        eps_scf_history:                                0.00E+00
                        eps_diis:                                       1.00E-01
                        eps_eigval:                                     1.00E-05
                        --------------------------------------------------------
                        level_shift [a.u.]:                             0.000000
                        --------------------------------------------------------
                        Outer loop SCF in use 
                        No variables optimised in outer loop
                        eps_scf                                         1.00E-07
                        max_scf                                               50
                        No outer loop optimization
                        step_size                                       5.00E-01

 PW_GRID| Information for grid number                                          1
 PW_GRID| Grid distributed over                                   128 processors
 PW_GRID| Real space group dimensions                                   128    1
 PW_GRID| the grid is blocked:                                                NO
 PW_GRID| Cutoff [a.u.]                                                   1200.0
 PW_GRID| spherical cutoff:                                                   NO
 PW_GRID|   Bounds   1           -300     299                Points:         600
 PW_GRID|   Bounds   2           -300     299                Points:         600
 PW_GRID|   Bounds   3           -300     299                Points:         600
 PW_GRID| Volume element (a.u.^3)  0.2499E-03     Volume (a.u.^3)     53986.6767
 PW_GRID| Grid span                                                    FULLSPACE
 PW_GRID|   Distribution                         Average         Max         Min
 PW_GRID|   G-Vectors                          1687500.0     1687800     1687200
 PW_GRID|   G-Rays                                2812.5        2813        2812
 PW_GRID|   Real Space Points                  1687500.0     1800000     1440000

 PW_GRID| Information for grid number                                          2
 PW_GRID| Number of the reference grid                                         1
 PW_GRID| Grid distributed over                                   128 processors
 PW_GRID| Real space group dimensions                                   128    1
 PW_GRID| the grid is blocked:                                                NO
 PW_GRID| Cutoff [a.u.]                                                    600.0
 PW_GRID| spherical cutoff:                                                   NO
 PW_GRID|   Bounds   1           -216     215                Points:         432
 PW_GRID|   Bounds   2           -216     215                Points:         432
 PW_GRID|   Bounds   3           -216     215                Points:         432
 PW_GRID| Volume element (a.u.^3)  0.6696E-03     Volume (a.u.^3)     53986.6767
 PW_GRID| Grid span                                                    FULLSPACE
 PW_GRID|   Distribution                         Average         Max         Min
 PW_GRID|   G-Vectors                           629856.0      630288      629424
 PW_GRID|   G-Rays                                1458.0        1459        1457
 PW_GRID|   Real Space Points                   629856.0      746496      559872

 PW_GRID| Information for grid number                                          3
 PW_GRID| Number of the reference grid                                         2
[...]
 flops   126 x     5 x    80              1008000       0.0%    100.0%      0.0%
 flops   126 x     5 x    46              1159200       0.0%    100.0%      0.0%
 flops     5 x     5 x    80              8020000       0.0%    100.0%      0.0%
 flops    80 x    32 x    80              8192000       0.0%    100.0%      0.0%
 flops     5 x     5 x    46              9223000       0.0%    100.0%      0.0%
 flops    80 x    32 x    46              9420800       0.0%    100.0%      0.0%
 flops    46 x    32 x    80              9420800       0.0%    100.0%      0.0%
 flops    46 x    80 x     5             10377600       0.0%    100.0%      0.0%
 flops    80 x    46 x     5             10377600       0.0%    100.0%      0.0%
 flops    46 x    32 x    46             10833920       0.0%    100.0%      0.0%
 flops    46 x    46 x     5             17901360       0.0%    100.0%      0.0%
 flops    80 x    80 x     5             18048000       0.0%    100.0%      0.0%
 flops    80 x     5 x    80             68864000       0.0%    100.0%      0.0%
 flops    80 x     5 x    46             74556800       0.0%    100.0%      0.0%
 flops    46 x     5 x    80             74924800       0.0%    100.0%      0.0%
 flops    46 x     5 x    46             88829680       0.0%    100.0%      0.0%
 flops inhomo. stacks                           0       0.0%      0.0%      0.0%
 flops total                       422.866114E+06       0.0%    100.0%      0.0%
 flops max/rank                    215.296322E+06       0.0%    100.0%      0.0%
 matmuls inhomo. stacks                         0       0.0%      0.0%      0.0%
 matmuls total                              17302       0.0%    100.0%      0.0%
 number of processed stacks                 16102       0.0%    100.0%      0.0%
 average stack size                                     0.0       1.1       0.0
 marketing flops                   461.536832E+06
 -------------------------------------------------------------------------------
 # multiplications                           1225
 max memory usage/rank               1.728967E+09
 # max total images/rank                        2
 # max 3D layers                                1
 # MPI messages exchanged                 4547200
 MPI messages size (bytes):
  total size                         3.343185E+09
  min size                           0.000000E+00
  max size                          80.640000E+03
  average size                     735.218384E+00
 MPI breakdown and total messages size (bytes):
             size <=      128             4416039                        0
       128 < size <=     8192               49246                126915776
      8192 < size <=    32768               41235                866180480
     32768 < size <=   131072               40680               2350088640
    131072 < size <=  4194304                   0                        0
   4194304 < size <= 16777216                   0                        0
  16777216 < size                               0                        0
 -------------------------------------------------------------------------------

 *** WARNING in dbcsr_mm.F:291 :: Using a non-square number of MPI ranks ***
 *** might lead to poor performance. Used ranks: 128 Suggested: 121 256  ***

 -------------------------------------------------------------------------------
 -                                                                             -
 -                      DBCSR MESSAGE PASSING PERFORMANCE                      -
 -                                                                             -
 -------------------------------------------------------------------------------
 ROUTINE             CALLS      AVE VOLUME [Bytes]
 MP_Bcast               24                     12.
 MP_Allreduce         4678                      8.
 MP_Alltoall         26758                  39332.
 MP_ISend            76404                   2851.
 MP_IRecv            75870                   2151.
 -------------------------------------------------------------------------------

 -------------------------------------------------------------------------------
 -                                                                             -
 -                                DBM STATISTICS                               -
 -                                                                             -
 -------------------------------------------------------------------------------
    M  x    N  x    K                                          COUNT     PERCENT
 -------------------------------------------------------------------------------

 -------------------------------------------------------------------------------
 -                                                                             -
 -                                GRID STATISTICS                              -
 -                                                                             -
 -------------------------------------------------------------------------------
 LP    KERNEL             BACKEND                              COUNT     PERCENT
 3     collocate ortho    CPU                                  41760       9.46%
 3     integrate ortho    CPU                                  40890       9.26%
 2     collocate ortho    CPU                                  40608       9.19%
 2     integrate ortho    CPU                                  39762       9.00%
 1     collocate ortho    CPU                                  32256       7.30%
 1     integrate ortho    CPU                                  31584       7.15%
 4     collocate ortho    CPU                                  30960       7.01%
 4     integrate ortho    CPU                                  30315       6.86%
 2     collocate general  CPU                                  28032       6.35%
 2     integrate general  CPU                                  27264       6.17%
 0     collocate ortho    CPU                                  18864       4.27%
 0     integrate ortho    CPU                                  18471       4.18%
 5     collocate ortho    CPU                                  18144       4.11%
 5     integrate ortho    CPU                                  17766       4.02%
 6     collocate ortho    CPU                                   8784       1.99%
 6     integrate ortho    CPU                                   8601       1.95%
 7     collocate ortho    CPU                                   2880       0.65%
 7     integrate ortho    CPU                                   2820       0.64%
 8     collocate ortho    CPU                                    576       0.13%
 8     integrate ortho    CPU                                    564       0.13%
 0     collocate general  CPU                                    384       0.09%
 0     integrate general  CPU                                    384       0.09%
 -------------------------------------------------------------------------------

 MEMORY| Estimated peak process memory [MiB]                                1652

 -------------------------------------------------------------------------------
 ----                             MULTIGRID INFO                            ----
 -------------------------------------------------------------------------------
 count for grid        1:        9191199          cutoff [a.u.]          600.00
 count for grid        2:        2303313          cutoff [a.u.]          200.00
 count for grid        3:        1525597          cutoff [a.u.]           66.67
 count for grid        4:         480207          cutoff [a.u.]           22.22
 count for grid        5:          50605          cutoff [a.u.]            7.41
 total gridlevel count  :       13550921

 -------------------------------------------------------------------------------
 -                                                                             -
 -                         MESSAGE PASSING PERFORMANCE                         -
 -                                                                             -
 -------------------------------------------------------------------------------

 ROUTINE             CALLS      AVE VOLUME [Bytes]
 MP_Group                6
 MP_Bcast             1021                 404815.
 MP_Allreduce         6928                  17344.
 MP_Sync              1471
 MP_Alltoall          3796               18353397.
 MP_SendRecv         54864                 127152.
 MP_ISendRecv       125349                  83649.
 MP_Wait            158868
 MP_comm_split          58
 MP_ISend            27778                 615886.
 MP_IRecv            30370                 563260.
 -------------------------------------------------------------------------------


 -------------------------------------------------------------------------------
 -                                                                             -
 -                           R E F E R E N C E S                               -
 -                                                                             -
 -------------------------------------------------------------------------------
 
 CP2K version 2024.1 (Development Version), the CP2K developers group (2024).
 CP2K is freely available from https://www.cp2k.org/ .

 Kuehne,Thomas D.; Iannuzzi,Marcella; Del Ben,Mauro;
 Rybkin,Vladimir V.; Seewald,Patrick; Stein,Frederick; Laino,Teodoro;
 Khaliullin,Rustam Z.; Schuett,Ole; Schiffmann,Florian; Golze,Dorothea;
 Wilhelm,Jan; Chulkov,Sergey; Bani-Hashemian,Mohammad Hossein;
 Weber,Valery; Borstnik,Urban; Taillefumier,Mathieu;
 Jakobovits,Alice Shoshana; Lazzaro,Alfio; Pabst,Hans; Mueller,Tiziano;
 Schade,Robert; Guidon,Manuel; Andermatt,Samuel; Holmberg,Nico;
 Schenter,Gregory K.; Hehn,Anna; Bussy,Augustin; Belleflamme,Fabian;
 Tabacchi,Gloria; Gloess,Andreas; Lass,Michael; Bethune,Iain;
 Mundy,Christopher J.; Plessl,Christian; Watkins,Matt;
 VandeVondele,Joost; Krack,Matthias; Hutter,Juerg. 
 The Journal of Chemical Physics, 152 (19), (2020). 
 CP2K: An electronic structure and molecular dynamics software package -
 Quickstep: Efficient and accurate electronic structure calculations.
 https://doi.org/10.1063/5.0007045

 Schuett, Ole; Messmer, Peter; Hutter, Juerg; VandeVondele, Joost. 
 Electronic Structure Calculations on Graphics Processing Units, John
 Wiley & Sons, Ltd, 173-190 (2016). 
 GPU-Accelerated Sparse Matrix-Matrix Multiplication for
 Linear Scaling Density Functional Theory.
 https://doi.org/10.1002/9781118670712.ch8

 Heinecke, A; Henry, G; Hutchinson, M; Pabst, H. 
 Proceedings of Intl. Supercomputing Conference, 981-991 (2016). 
 LIBXSMM: Accelerating Small Matrix Multiplications
 by Runtime Code Generation.
 https://doi.org/10.1109/SC.2016.83

 Borstnik, U; VandeVondele, J; Weber, V; Hutter, J. 
 PARALLEL COMPUTING, 40 (5-6), 47-58 (2014). 
 Sparse matrix multiplication: The distributed block-compressed sparse
 row library.
 https://doi.org/10.1016/j.parco.2014.03.012

 Hutter, J; Iannuzzi, M; Schiffmann, F; VandeVondele, J. 
 WIREs Comput Mol Sci., 4 (1), 15-25 (2014). 
 CP2K: atomistic simulations of condensed matter systems.
 https://doi.org/10.1002/wcms.1159

 Guidon, M; Hutter, J; VandeVondele, J. 
 JOURNAL OF CHEMICAL THEORY AND COMPUTATION, 5 (11), 3010-3021 (2009). 
 Robust Periodic Hartree-Fock Exchange for Large-Scale Simulations Using
 Gaussian Basis Sets.
 https://doi.org/10.1021/ct900494g

 Guidon, M; Schiffmann, F; Hutter, J; VandeVondele, J. 
 JOURNAL OF CHEMICAL PHYSICS, 128 (21), 214104 (2008). 
 Ab initio molecular dynamics using hybrid density functionals.
 https://doi.org/10.1063/1.2931945

 Frigo, M; Johnson, SG. 
 PROCEEDINGS OF THE IEEE, 93 (2), 216-231 (2005). 
 The design and implementation of FFTW3.
 https://doi.org/10.1109/JPROC.2004.840301

 Iannuzzi, M; Chassaing, T; Wallman, T; Hutter, J. 
 CHIMIA, 59 (7-8), 499-503 (2005). 
 Ground and excited state density functional calculations with the
 Gaussian and augmented-plane-wave method.
 https://doi.org/10.2533/000942905777676164

 VandeVondele, J; Hutter, J. 
 JOURNAL OF CHEMICAL PHYSICS, 118 (10), 4365-4369 (2003). 
 An efficient orbital transformation method for electronic structure
 calculations.
 https://doi.org/10.1063/1.1543154

 Martin,Richard L.. 
 The Journal of Chemical Physics, 118 (11), 4775-4777 (2003). 
 Natural transition orbitals.
 https://doi.org/10.1063/1.1558471

 Lippert, G; Hutter, J; Parrinello, M. 
 THEORETICAL CHEMISTRY ACCOUNTS, 103 (2), 124-140 (1999). 
 The Gaussian and augmented-plane-wave density functional method for ab
 initio molecular dynamics simulations.
 https://doi.org/10.1007/s002140050523

 Krack, M; Parrinello, M. 
 PHYSICAL CHEMISTRY CHEMICAL PHYSICS, 2 (10), 2105-2112 (2000). 
 All-electron ab-initio molecular dynamics.
 https://doi.org/10.1039/b001167n

 Martyna, GJ; Tuckerman, ME. 
 JOURNAL OF CHEMICAL PHYSICS, 110 (6), 2810-2821 (1999). 
 A reciprocal space based method for treating long range interactions in
 ab initio and force-field-based calculations in clusters.
 https://doi.org/10.1063/1.477923

 Perdew, JP; Burke, K; Ernzerhof, M. 
 PHYSICAL REVIEW LETTERS, 77 (18), 3865-3868 (1996). 
 Generalized gradient approximation made simple.
 https://doi.org/10.1103/PhysRevLett.77.3865


 -------------------------------------------------------------------------------
 -                                                                             -
 -                                T I M I N G                                  -
 -                                                                             -
 -------------------------------------------------------------------------------
 SUBROUTINE                       CALLS  ASD         SELF TIME        TOTAL TIME
                                MAXIMUM       AVERAGE  MAXIMUM  AVERAGE  MAXIMUM
 CP2K                                 1  1.0    4.736    4.956 9129.065 9129.119
 qs_energies                          1  2.0    0.012    0.075 9068.940 9068.991
 qs_energies_properties               1  3.0    0.000    0.013 8886.094 8886.156
 tddfpt                               1  4.0    0.013    0.076 8886.094 8886.156
 tddfpt_soc_energies                  1  5.0    0.026    0.116 8841.407 8841.472
 tddfpt_energies                      2  6.0    0.040    0.157 8760.747 8760.854
 tddfpt_davidson_solver               4  7.0    0.096    0.205 7717.115 7717.153
 tddfpt_compute_Aop_evects           14  8.0    0.050    0.117 6934.921 6935.165
 fhxc_kernel                         14  9.0    0.245    0.380 4322.729 4322.974
 mp_waitall_1                    265698 14.5 2541.550 2597.207 2541.550 2597.207
 tddfpt_apply_hfx                    14  9.0    0.052    0.157 2315.084 2315.197
 cp_dbcsr_sm_fm_multiply            881  9.5    0.021    0.071 1749.971 1762.352
 qs_rho_update_rho_low              144  9.9    0.032    0.097 1687.321 1687.899
 integrate_four_center              281 11.0    0.426    0.678 1637.091 1640.545
 tddft_hfx_matrix                   280 10.0    0.162    0.235 1592.107 1595.552
 calculate_rho_elec                 144 10.9    0.400    0.554 1589.490 1591.404
 density_rs2pw                      144 11.9    0.018    0.059 1565.905 1569.718
 integrate_v_rspace                 141 10.0    0.007    0.029 1534.437 1537.040
 potential_pw2rs                    141 11.0    0.033    0.074 1500.058 1504.678
 transfer_rs2pw                     794 12.8    0.010    0.045 1480.185 1486.018
 transfer_pw2rs                     777 12.0    0.007    0.031 1397.518 1410.905
 dbcsr_complete_redistribute       2809 11.5    0.201    0.310 1382.363 1407.224
 mp_sendrecv_dv                   54864 14.9 1046.314 1056.310 1046.314 1056.310
 copy_dbcsr_to_fm                   928 10.4    0.009    0.032  987.823 1005.682
 tddfpt_print_nto_analysis            2  7.0    0.061    0.150  951.320  951.516
 integrate_four_center_getP         281 12.0    0.111    0.214  808.221  811.393
 transfer_pw2rs_70                  141 13.0    3.785    4.514  784.683  808.731
 cp_fm_geeig                         20  8.0    0.012    0.068  769.399  770.012
 cp_fm_syevd                         58  8.6    0.019    0.107  757.828  758.507
 integrate_four_center_dist_KS      281 12.0    0.051    0.109  719.155  720.824
 cp_fm_redistribute_end              58  9.6  359.072  680.638  366.751  682.648
 copy_fm_to_dbcsr                  1877 10.6    0.007    0.042  652.734  677.590
 transfer_rs2pw_70                  144 13.9    2.442    3.702  653.712  667.182
 mp_waitany                       27778 14.3  613.805  647.537  613.805  647.537
 mp_alltoall_d11v                 11499 12.8  587.778  635.765  587.778  635.765
 pw_transfer                       3138 12.5    0.271    0.414  622.846  632.537
 fft_wrap_pw1pw2                   2923 13.6    0.026    0.079  621.788  631.400
 cp_fm_syevd_base                    58  9.6  310.526  628.508  310.526  628.508
 dbcsr_multiply_generic            1225 11.3    0.099    0.192  571.163  606.496
 fft3d_ps                          2923 15.6   66.716   71.728  585.549  596.017
 tddfpt_orthonormalize_psi1_psi      16  7.9    0.012    0.059  514.734  516.523
 mp_alltoall_i11v                  9356 12.5  493.733  495.022  493.733  495.022
 fft_wrap_pw1pw2_600               1782 14.6    6.643    8.037  425.887  434.908
 mp_alltoall_z22v                  2923 17.6  415.945  429.091  415.945  429.091
 mp_sync                           1471 12.7  347.087  399.765  347.087  399.765
 cp_dbcsr_sm_fm_multiply_core       881 10.5    0.009    0.047  359.679  393.692
 tddfpt_apply_xc_analytic           140 10.0    1.199    1.848  326.774  327.866
 mp_cart_sub                       1864 12.4  303.772  305.471  303.772  305.471
 tddfpt_apply_energy_diff            14  9.0    0.012    0.049  297.057  297.175
 mp_sum_l                          4721 11.3  269.117  280.849  269.117  280.849
 cp_dbcsr_plus_fm_fm_t_native       141 10.0    0.020    0.092  276.110  277.848
 dbcsr_desymmetrize_deep            929 11.4    0.022    0.067  259.820  277.760
 mp_sum_dv                         4180 10.0  263.896  267.513  263.896  267.513
 xc_pw_derive                      1065 11.8    0.024    0.091  261.219  264.580
 transfer_rs2pw_600                 218 13.5    5.806    7.451  241.496  249.710
 mp_alltoall_i22                   3738 12.5  204.843  236.243  204.843  236.243
 cp_fm_trace_a1b1t1_aa             3880  9.0    0.009    0.033  226.269  229.355
 transfer_rs2pw_30                  144 13.9    0.302    0.466  209.917  219.366
 transfer_pw2rs_30                  141 13.0    0.399    0.699  205.819  214.923
 yz_to_x                           1073 17.1    5.613    6.499  202.213  214.479
 x_to_yz                           1280 16.1    9.094   12.388  202.838  205.335
 transfer_rs2pw_200                 144 13.9    1.366    2.078  189.552  200.467
 mp_sum_dm                         1194 11.7  184.510  194.685  184.510  194.685
 multiply_cannon                   1225 12.3    0.080    0.136  164.589  192.529
 transfer_rs2pw_10                  144 13.9    0.069    0.147  185.498  189.828
 tddfpt_compute_residual_vects       10  8.0    0.009    0.041  188.193  188.680
 transfer_pw2rs_10                  141 13.0    0.098    0.223  178.867  183.875
 -------------------------------------------------------------------------------

 The number of warnings for this run is : 1
 
 -------------------------------------------------------------------------------
  **** **** ******  **  PROGRAM ENDED AT                 2024-02-07 17:38:16.798
 ***** ** ***  *** **   PROGRAM RAN ON                               nesh-srp116
 **    ****   ******    PROGRAM RAN BY                                  suphc355
 ***** **    ** ** **   PROGRAM PROCESS ID                               1198395
  **** **  *******  **  PROGRAM STOPPED IN /gxfs_work/cau/suphc355/homologes/H2X
                                           /AE/O
