 DBCSR| CPU Multiplication driver                                           XSMM (U)
 DBCSR| Multrec recursion limit                                              512 (U)
 DBCSR| Multiplication stack size                                           1000 (D)
 DBCSR| Maximum elements for images                                    UNLIMITED (U)
 DBCSR| Multiplicative factor virtual images                                   1 (U)
 DBCSR| Use multiplication densification                                       T (D)
 DBCSR| Multiplication size stacks                                             3 (U)
 DBCSR| Use memory pool for CPU allocation                                     F (U)
 DBCSR| Number of 3D layers                                               SINGLE (U)
 DBCSR| Use MPI memory allocation                                              F (U)
 DBCSR| Use RMA algorithm                                                      F (U)
 DBCSR| Use Communication thread                                               T (U)
 DBCSR| Communication thread load                                             83 (D)
 DBCSR| MPI: My process id                                                     0
 DBCSR| MPI: Number of processes                                             128
 DBCSR| OMP: Current number of threads                                         2
 DBCSR| OMP: Max number of threads                                             2
 DBCSR| Split modifier for TAS multiplication algorithm                  1.0E+00 (U)


  **** **** ******  **  PROGRAM STARTED AT               2024-01-12 14:08:45.971
 ***** ** ***  *** **   PROGRAM STARTED ON                           nesh-srp312
 **    ****   ******    PROGRAM STARTED BY                              suphc355
 ***** **    ** ** **   PROGRAM PROCESS ID                               2615013
  **** **  *******  **  PROGRAM STARTED IN /gxfs_work/cau/suphc355/homologes/H2X
                                           /AE/O

 CP2K| version string:                 CP2K version 2024.1 (Development Version)
 CP2K| source code revision number:                                  git:15182a3
 CP2K| cp2kflags: omp libint fftw3 libxc libgrpp parallel mpi_f08 scalapack cosm
 CP2K|            a xsmm spglib mkl
 CP2K| is freely available from                            https://www.cp2k.org/
 CP2K| Program compiled at                           Di 9. Jan 09:05:01 CET 2024
 CP2K| Program compiled on                                           nesh-login2
 CP2K| Program compiled for                                                local
 CP2K| Data directory path            /gxfs_home/cau/suphc355/software/cp2k/data
 CP2K| Input file name                                                AE_aug.inp
 
 GLOBAL| Force Environment number                                              1
 GLOBAL| Basis set file name                                  ../../../basis_aug
 GLOBAL| Potential file name                                           POTENTIAL
 GLOBAL| MM Potential file name                                     MM_POTENTIAL
 GLOBAL| Coordinate file name                                            opt.xyz
 GLOBAL| Method name                                                        CP2K
 GLOBAL| Project name                                                CH2O_AE_aug
 GLOBAL| Run type                                                         ENERGY
 GLOBAL| FFT library                                                       FFTW3
 GLOBAL| Diagonalization library                                       ScaLAPACK
 GLOBAL| DGEMM library                                                      BLAS
 GLOBAL| Orthonormality check for eigenvectors                          DISABLED
 GLOBAL| Matrix multiplication library                                     COSMA
 GLOBAL| All-to-all communication in single precision                          F
 GLOBAL| FFTs using library dependent lengths                                  F
 GLOBAL| Grid backend                                                       AUTO
 GLOBAL| Global print level                                               MEDIUM
 GLOBAL| MPI I/O enabled                                                       T
 GLOBAL| Total number of message passing processes                           128
 GLOBAL| Number of threads for this process                                    2
 GLOBAL| This output is from process                                           0
 GLOBAL| Stack size for threads created by OpenMP (OMP_STACKSIZE)        default
 GLOBAL| CPU model name                              Intel(R) Xeon(R) Gold 6426Y
 GLOBAL| CPUID                                                              1003

 MEMORY| system memory details [Kb]
 MEMORY|                        rank 0           min           max       average
 MEMORY| MemTotal            263786136     263786136     263786136     263786136
 MEMORY| MemFree             244284960     244268580     244310492     244288001
 MEMORY| Buffers                952916        951012        952976        952444
 MEMORY| Cached                 699536        692096        699536        694273
 MEMORY| Slab                   493900        492064        493900        493106
 MEMORY| SReclaimable           133884        132768        134320        133581
 MEMORY| MemLikelyFree       246071296     246047004     246087292     246068300


 *** Fundamental physical constants (SI units) ***

 *** Literature: B. J. Mohr and B. N. Taylor,
 ***             CODATA recommended values of the fundamental physical
 ***             constants: 2006, Web Version 5.1
 ***             http://physics.nist.gov/constants

 Speed of light in vacuum [m/s]                             2.99792458000000E+08
 Magnetic constant or permeability of vacuum [N/A**2]       1.25663706143592E-06
 Electric constant or permittivity of vacuum [F/m]          8.85418781762039E-12
 Planck constant (h) [J*s]                                  6.62606896000000E-34
 Planck constant (h-bar) [J*s]                              1.05457162825177E-34
 Elementary charge [C]                                      1.60217648700000E-19
 Electron mass [kg]                                         9.10938215000000E-31
 Electron g factor [ ]                                     -2.00231930436220E+00
 Proton mass [kg]                                           1.67262163700000E-27
 Fine-structure constant                                    7.29735253760000E-03
 Rydberg constant [1/m]                                     1.09737315685270E+07
 Avogadro constant [1/mol]                                  6.02214179000000E+23
 Boltzmann constant [J/K]                                   1.38065040000000E-23
 Atomic mass unit [kg]                                      1.66053878200000E-27
 Bohr radius [m]                                            5.29177208590000E-11

 *** Conversion factors ***

 [u] -> [a.u.]                                              1.82288848426455E+03
 [Angstrom] -> [Bohr] = [a.u.]                              1.88972613288564E+00
 [a.u.] = [Bohr] -> [Angstrom]                              5.29177208590000E-01
 [a.u.] -> [s]                                              2.41888432650478E-17
 [a.u.] -> [fs]                                             2.41888432650478E-02
 [a.u.] -> [J]                                              4.35974393937059E-18
 [a.u.] -> [N]                                              8.23872205491840E-08
 [a.u.] -> [K]                                              3.15774647902944E+05
 [a.u.] -> [kJ/mol]                                         2.62549961709828E+03
 [a.u.] -> [kcal/mol]                                       6.27509468713739E+02
 [a.u.] -> [Pa]                                             2.94210107994716E+13
 [a.u.] -> [bar]                                            2.94210107994716E+08
 [a.u.] -> [atm]                                            2.90362800883016E+08
 [a.u.] -> [eV]                                             2.72113838565563E+01
 [a.u.] -> [Hz]                                             6.57968392072181E+15
 [a.u.] -> [1/cm] (wave numbers)                            2.19474631370540E+05
 [a.u./Bohr**2] -> [1/cm]                                   5.14048714338585E+03
 

 CELL_TOP| Volume [angstrom^3]:                                       512.000000
 CELL_TOP| Vector a [angstrom     8.000     0.000     0.000   |a| =     8.000000
 CELL_TOP| Vector b [angstrom     0.000     8.000     0.000   |b| =     8.000000
 CELL_TOP| Vector c [angstrom     0.000     0.000     8.000   |c| =     8.000000
 CELL_TOP| Angle (b,c), alpha [degree]:                                90.000000
 CELL_TOP| Angle (a,c), beta  [degree]:                                90.000000
 CELL_TOP| Angle (a,b), gamma [degree]:                                90.000000
 CELL_TOP| Numerically orthorhombic:                                         YES
 CELL_TOP| Periodicity                                                      NONE
 
 GENERATE|  Preliminary Number of Bonds generated:                             0
 GENERATE|  Achieved consistency in connectivity generation.

 CELL| Volume [angstrom^3]:                                           512.000000
 CELL| Vector a [angstrom]:       8.000     0.000     0.000   |a| =     8.000000
 CELL| Vector b [angstrom]:       0.000     8.000     0.000   |b| =     8.000000
 CELL| Vector c [angstrom]:       0.000     0.000     8.000   |c| =     8.000000
 CELL| Angle (b,c), alpha [degree]:                                    90.000000
 CELL| Angle (a,c), beta  [degree]:                                    90.000000
 CELL| Angle (a,b), gamma [degree]:                                    90.000000
 CELL| Numerically orthorhombic:                                             YES
 CELL| Periodicity                                                          NONE

 CELL_REF| Volume [angstrom^3]:                                       512.000000
 CELL_REF| Vector a [angstrom     8.000     0.000     0.000   |a| =     8.000000
 CELL_REF| Vector b [angstrom     0.000     8.000     0.000   |b| =     8.000000
 CELL_REF| Vector c [angstrom     0.000     0.000     8.000   |c| =     8.000000
 CELL_REF| Angle (b,c), alpha [degree]:                                90.000000
 CELL_REF| Angle (a,c), beta  [degree]:                                90.000000
 CELL_REF| Angle (a,b), gamma [degree]:                                90.000000
 CELL_REF| Numerically orthorhombic:                                         YES
 CELL_REF| Periodicity                                                      NONE

 *******************************************************************************
 *******************************************************************************
 **                                                                           **
 **     #####                         ##              ##                      **
 **    ##   ##            ##          ##              ##                      **
 **   ##     ##                       ##            ######                    **
 **   ##     ##  ##   ##  ##   #####  ##  ##   ####   ##    #####    #####    **
 **   ##     ##  ##   ##  ##  ##      ## ##   ##      ##   ##   ##  ##   ##   **
 **   ##  ## ##  ##   ##  ##  ##      ####     ###    ##   ######   ######    **
 **    ##  ###   ##   ##  ##  ##      ## ##      ##   ##   ##       ##        **
 **     #######   #####   ##   #####  ##  ##  ####    ##    #####   ##        **
 **           ##                                                    ##        **
 **                                                                           **
 **                                                ... make the atoms dance   **
 **                                                                           **
 **            Copyright (C) by CP2K developers group (2000-2024)             **
 **                      J. Chem. Phys. 152, 194103 (2020)                    **
 **                                                                           **
 *******************************************************************************

 DFT| Spin restricted Kohn-Sham (RKS) calculation                            RKS
 DFT| Multiplicity                                                             1
 DFT| Number of spin states                                                    1
 DFT| Charge                                                                   0
 DFT| Self-interaction correction (SIC)                                       NO
 DFT| Cutoffs: density                                              1.000000E-10
 DFT|          gradient                                             1.000000E-10
 DFT|          tau                                                  1.000000E-10
 DFT|          cutoff_smoothing_range                               0.000000E+00
 DFT| XC density smoothing                                                  NONE
 DFT| XC derivatives                                                          PW

 FUNCTIONAL| PBE:
 FUNCTIONAL| J.P.Perdew, K.Burke, M.Ernzerhof, Phys. Rev. Letter, vol. 77, n 18,
 FUNCTIONAL|  pp. 3865-3868, (1996) {spin unpolarized}                          


 QS| Method:                                                                GAPW
 QS| Density plane wave grid type                        NON-SPHERICAL FULLSPACE
 QS| Number of grid levels:                                                    5
 QS| Density cutoff [a.u.]:                                                600.0
 QS| Multi grid cutoff [a.u.]: 1) grid level                               600.0
 QS|                           2) grid level                               200.0
 QS|                           3) grid level                                66.7
 QS|                           4) grid level                                22.2
 QS|                           5) grid level                                 7.4
 QS| Grid level progression factor:                                          3.0
 QS| Relative density cutoff [a.u.]:                                        40.0
 QS| Interaction thresholds: eps_pgf_orb:                                1.0E-30
 QS|                         eps_filter_matrix:                          0.0E+00
 QS|                         eps_core_charge:                            1.0E-17
 QS|                         eps_rho_gspace:                             1.0E-15
 QS|                         eps_rho_rspace:                             1.0E-15
 QS|                         eps_gvg_rspace:                             3.2E-08
 QS|                         eps_ppl:                                    1.0E-02
 QS|                         eps_ppnl:                                   3.2E-10
 QS| GAPW|      One center basis from orbital basis primitives
 QS| GAPW|                   eps_fit:                                    1.0E-04
 QS| GAPW|                   eps_iso:                                    1.0E-12
 QS| GAPW|                   eps_svd:                                    1.0E-08
 QS| GAPW|                   eps_cpc:                                    1.0E-15
 QS| GAPW|   atom-r-grid: quadrature:                                     GC_LOG
 QS| GAPW|      atom-s-grid:  max l :                                          8
 QS| GAPW|      max_l_rho0 :                                                   2


 ATOMIC KIND INFORMATION

  1. Atomic kind: H                                     Number of atoms:       2

     Orbital Basis Set                                               aug-cc-pVQZ

       Number of orbital shell sets:                                           8
       Number of orbital shells:                                              14
       Number of primitive Cartesian functions:                               16
       Number of Cartesian basis functions:                                   55
       Number of spherical basis functions:                                   46
       Norm type:                                                              2

       Normalised Cartesian orbitals:

                        Set   Shell   Orbital            Exponent    Coefficient

                          1       1    1s               82.640000       0.000000
                                                        12.410000       0.000000
                                                         2.824000       0.000000
                                                         0.797700       0.601575
                                                         0.258100       0.000000
                                                         0.089890       0.000000

                          1       2    2s               82.640000       0.000000
                                                        12.410000       0.000000
                                                         2.824000       0.000000
                                                         0.797700       0.000000
                                                         0.258100       0.258078
                                                         0.089890       0.000000

                          1       3    3s               82.640000       0.039186
                                                        12.410000       0.072302
                                                         2.824000       0.117344
                                                         0.797700       0.154530
                                                         0.258100       0.128360
                                                         0.089890       0.034648

                          1       4    4s               82.640000       0.000000
                                                        12.410000       0.000000
                                                         2.824000       0.000000
                                                         0.797700       0.000000
                                                         0.258100       0.000000
                                                         0.089890       0.117002

                          2       1    1s                0.023630       0.042954

                          3       1    1px               2.292000       4.019836
                                                         0.838000       0.000000
                                                         0.292000       0.000000
                          3       1    1py               2.292000       4.019836
                                                         0.838000       0.000000
                                                         0.292000       0.000000
                          3       1    1pz               2.292000       4.019836
                                                         0.838000       0.000000
                                                         0.292000       0.000000

                          3       2    2px               2.292000       0.000000
                                                         0.838000       1.142865
                                                         0.292000       0.000000
                          3       2    2py               2.292000       0.000000
                                                         0.838000       1.142865
                                                         0.292000       0.000000
                          3       2    2pz               2.292000       0.000000
                                                         0.838000       1.142865
                                                         0.292000       0.000000

                          3       3    3px               2.292000       0.000000
                                                         0.838000       0.000000
                                                         0.292000       0.305963
                          3       3    3py               2.292000       0.000000
                                                         0.838000       0.000000
                                                         0.292000       0.305963
                          3       3    3pz               2.292000       0.000000
                                                         0.838000       0.000000
                                                         0.292000       0.305963

                          4       1    1px               0.084800       0.065228
                          4       1    1py               0.084800       0.065228
                          4       1    1pz               0.084800       0.065228

                          5       1    1dx2              2.062000       5.840024
                                                         0.662000       0.000000
                          5       1    1dxy              2.062000      10.115218
                                                         0.662000       0.000000
                          5       1    1dxz              2.062000      10.115218
                                                         0.662000       0.000000
                          5       1    1dy2              2.062000       5.840024
                                                         0.662000       0.000000
                          5       1    1dyz              2.062000      10.115218
                                                         0.662000       0.000000
                          5       1    1dz2              2.062000       5.840024
                                                         0.662000       0.000000

                          5       2    2dx2              2.062000       0.000000
                                                         0.662000       0.799670
                          5       2    2dxy              2.062000       0.000000
                                                         0.662000       1.385069
                          5       2    2dxz              2.062000       0.000000
                                                         0.662000       1.385069
                          5       2    2dy2              2.062000       0.000000
                                                         0.662000       0.799670
                          5       2    2dyz              2.062000       0.000000
                                                         0.662000       1.385069
                          5       2    2dz2              2.062000       0.000000
                                                         0.662000       0.799670

                          6       1    1dx2              0.190000       0.089997
                          6       1    1dxy              0.190000       0.155879
                          6       1    1dxz              0.190000       0.155879
                          6       1    1dy2              0.190000       0.089997
                          6       1    1dyz              0.190000       0.155879
                          6       1    1dz2              0.190000       0.089997

                          7       1    1fx3              1.397000       3.123535
                          7       1    1fx2y             1.397000       6.984436
                          7       1    1fx2z             1.397000       6.984436
                          7       1    1fxy2             1.397000       6.984436
                          7       1    1fxyz             1.397000      12.097399
                          7       1    1fxz2             1.397000       6.984436
                          7       1    1fy3              1.397000       3.123535
                          7       1    1fy2z             1.397000       6.984436
                          7       1    1fyz2             1.397000       6.984436
                          7       1    1fz3              1.397000       3.123535

                          8       1    1fx3              0.360000       0.147787
                          8       1    1fx2y             0.360000       0.330461
                          8       1    1fx2z             0.360000       0.330461
                          8       1    1fxy2             0.360000       0.330461
                          8       1    1fxyz             0.360000       0.572375
                          8       1    1fxz2             0.360000       0.330461
                          8       1    1fy3              0.360000       0.147787
                          8       1    1fy2z             0.360000       0.330461
                          8       1    1fyz2             0.360000       0.330461
                          8       1    1fz3              0.360000       0.147787

       Atomic covalent radius [Angstrom]:                                  0.320

       Atomic van der Waals radius [Angstrom]:                             1.090

     The atoms of this atomic kind are PAW atoms (GAPW):
       Hard Gaussian function radius:                                      1.200
       Rho0 radius:                                                        1.200
       Maximum GTO radius used for PAW projector construction:            24.566

     GAPW Soft Basis Set                                        aug-cc-pVQZ_soft

       Number of orbital shell sets:                                           8
       Number of orbital shells:                                              14
       Number of primitive Cartesian functions:                               14
       Number of Cartesian basis functions:                                   55
       Number of spherical basis functions:                                   46
       Norm type:                                                              2

       Normalised Cartesian orbitals:

                        Set   Shell   Orbital            Exponent    Coefficient

                          1       1    1s                2.824000       0.000000
                                                         0.797700       0.601575
                                                         0.258100       0.000000
                                                         0.089890       0.000000

                          1       2    2s                2.824000       0.000000
                                                         0.797700       0.000000
                                                         0.258100       0.258078
                                                         0.089890       0.000000

                          1       3    3s                2.824000       0.117344
                                                         0.797700       0.154530
                                                         0.258100       0.128360
                                                         0.089890       0.034648

                          1       4    4s                2.824000       0.000000
                                                         0.797700       0.000000
                                                         0.258100       0.000000
                                                         0.089890       0.117002

                          2       1    1s                0.023630       0.042954

                          3       1    1px               2.292000       4.019836
                                                         0.838000       0.000000
                                                         0.292000       0.000000
                          3       1    1py               2.292000       4.019836
                                                         0.838000       0.000000
                                                         0.292000       0.000000
                          3       1    1pz               2.292000       4.019836
                                                         0.838000       0.000000
                                                         0.292000       0.000000

                          3       2    2px               2.292000       0.000000
                                                         0.838000       1.142865
                                                         0.292000       0.000000
                          3       2    2py               2.292000       0.000000
                                                         0.838000       1.142865
                                                         0.292000       0.000000
                          3       2    2pz               2.292000       0.000000
                                                         0.838000       1.142865
                                                         0.292000       0.000000

                          3       3    3px               2.292000       0.000000
                                                         0.838000       0.000000
                                                         0.292000       0.305963
                          3       3    3py               2.292000       0.000000
                                                         0.838000       0.000000
                                                         0.292000       0.305963
                          3       3    3pz               2.292000       0.000000
                                                         0.838000       0.000000
                                                         0.292000       0.305963

                          4       1    1px               0.084800       0.065228
                          4       1    1py               0.084800       0.065228
                          4       1    1pz               0.084800       0.065228

                          5       1    1dx2              2.062000       5.840024
                                                         0.662000       0.000000
                          5       1    1dxy              2.062000      10.115218
                                                         0.662000       0.000000
                          5       1    1dxz              2.062000      10.115218
                                                         0.662000       0.000000
                          5       1    1dy2              2.062000       5.840024
                                                         0.662000       0.000000
                          5       1    1dyz              2.062000      10.115218
                                                         0.662000       0.000000
                          5       1    1dz2              2.062000       5.840024
                                                         0.662000       0.000000

                          5       2    2dx2              2.062000       0.000000
                                                         0.662000       0.799670
                          5       2    2dxy              2.062000       0.000000
                                                         0.662000       1.385069
                          5       2    2dxz              2.062000       0.000000
                                                         0.662000       1.385069
                          5       2    2dy2              2.062000       0.000000
                                                         0.662000       0.799670
                          5       2    2dyz              2.062000       0.000000
                                                         0.662000       1.385069
                          5       2    2dz2              2.062000       0.000000
                                                         0.662000       0.799670

                          6       1    1dx2              0.190000       0.089997
                          6       1    1dxy              0.190000       0.155879
                          6       1    1dxz              0.190000       0.155879
                          6       1    1dy2              0.190000       0.089997
                          6       1    1dyz              0.190000       0.155879
                          6       1    1dz2              0.190000       0.089997

                          7       1    1fx3              1.397000       3.123535
                          7       1    1fx2y             1.397000       6.984436
                          7       1    1fx2z             1.397000       6.984436
                          7       1    1fxy2             1.397000       6.984436
                          7       1    1fxyz             1.397000      12.097399
                          7       1    1fxz2             1.397000       6.984436
                          7       1    1fy3              1.397000       3.123535
                          7       1    1fy2z             1.397000       6.984436
                          7       1    1fyz2             1.397000       6.984436
                          7       1    1fz3              1.397000       3.123535

                          8       1    1fx3              0.360000       0.147787
                          8       1    1fx2y             0.360000       0.330461
                          8       1    1fx2z             0.360000       0.330461
                          8       1    1fxy2             0.360000       0.330461
                          8       1    1fxyz             0.360000       0.572375
                          8       1    1fxz2             0.360000       0.330461
                          8       1    1fy3              0.360000       0.147787
                          8       1    1fy2z             0.360000       0.330461
                          8       1    1fyz2             0.360000       0.330461
                          8       1    1fz3              0.360000       0.147787

     AE Potential information for                                            ALL

       Description:                                       All-electron potential
                                          Krack, Parrinello, PCCP 2, 2105 (2000)

       Gaussian exponent of the core charge distribution:              12.500000
       Electronic configuration (s p d ...):                           1   0   0

  2. Atomic kind: O                                     Number of atoms:       1

     Orbital Basis Set                                               aug-cc-pVQZ

       Number of orbital shell sets:                                          10
       Number of orbital shells:                                              20
       Number of primitive Cartesian functions:                               29
       Number of Cartesian basis functions:                                  105
       Number of spherical basis functions:                                   80
       Norm type:                                                              2

       Normalised Cartesian orbitals:

                        Set   Shell   Orbital            Exponent    Coefficient

                          1       1    1s            61420.000000       0.250256
                                                      9199.000000       0.467274
                                                      2091.000000       0.807479
                                                       590.900000       1.299881
                                                       192.300000       1.929375
                                                        69.320000       2.498458
                                                        26.970000       2.574768
                                                        11.100000       1.727188
                                                         4.682000       0.492214
                                                         1.428000       0.016380
                                                         0.554700      -0.001146
                                                         0.206700       0.000208

                          1       2    2s            61420.000000       0.000000
                                                      9199.000000       0.000000
                                                      2091.000000       0.000000
                                                       590.900000       0.000000
                                                       192.300000       0.000000
                                                        69.320000       0.000000
                                                        26.970000       0.000000
                                                        11.100000       0.000000
                                                         4.682000       0.000000
                                                         1.428000       0.931014
                                                         0.554700       0.000000
                                                         0.206700       0.000000

                          1       3    3s            61420.000000       0.000000
                                                      9199.000000       0.000000
                                                      2091.000000       0.000000
                                                       590.900000       0.000000
                                                       192.300000       0.000000
                                                        69.320000       0.000000
                                                        26.970000       0.000000
                                                        11.100000       0.000000
                                                         4.682000       0.000000
                                                         1.428000       0.000000
                                                         0.554700       0.458093
                                                         0.206700       0.000000

                          1       4    4s            61420.000000      -0.055613
                                                      9199.000000      -0.106442
                                                      2091.000000      -0.182696
                                                       590.900000      -0.299644
                                                       192.300000      -0.447389
                                                        69.320000      -0.620860
                                                        26.970000      -0.700015
                                                        11.100000      -0.659178
                                                         4.682000      -0.261625
                                                         1.428000       0.269044
                                                         0.554700       0.268501
                                                         0.206700       0.060656

                          1       5    5s            61420.000000       0.000000
                                                      9199.000000       0.000000
                                                      2091.000000       0.000000
                                                       590.900000       0.000000
                                                       192.300000       0.000000
                                                        69.320000       0.000000
                                                        26.970000       0.000000
                                                        11.100000       0.000000
                                                         4.682000       0.000000
                                                         1.428000       0.000000
                                                         0.554700       0.000000
                                                         0.206700       0.218482

                          2       1    1s                0.069590       0.096565

                          3       1    1px              63.420000       0.000000
                                                        14.660000       0.000000
                                                         4.459000       0.000000
                                                         1.531000       2.427499
                                                         0.530200       0.000000
                                                         0.175000       0.000000
                          3       1    1py              63.420000       0.000000
                                                        14.660000       0.000000
                                                         4.459000       0.000000
                                                         1.531000       2.427499
                                                         0.530200       0.000000
                                                         0.175000       0.000000
                          3       1    1pz              63.420000       0.000000
                                                        14.660000       0.000000
                                                         4.459000       0.000000
                                                         1.531000       2.427499
                                                         0.530200       0.000000
                                                         0.175000       0.000000

                          3       2    2px              63.420000       1.541868
                                                        14.660000       1.709122
                                                         4.459000       1.488326
                                                         1.531000       0.865964
                                                         0.530200       0.289113
                                                         0.175000       0.039518
                          3       2    2py              63.420000       1.541868
                                                        14.660000       1.709122
                                                         4.459000       1.488326
                                                         1.531000       0.865964
                                                         0.530200       0.289113
                                                         0.175000       0.039518
                          3       2    2pz              63.420000       1.541868
                                                        14.660000       1.709122
                                                         4.459000       1.488326
                                                         1.531000       0.865964
                                                         0.530200       0.289113
                                                         0.175000       0.039518

                          3       3    3px              63.420000       0.000000
                                                        14.660000       0.000000
                                                         4.459000       0.000000
                                                         1.531000       0.000000
                                                         0.530200       0.644896
                                                         0.175000       0.000000
                          3       3    3py              63.420000       0.000000
                                                        14.660000       0.000000
                                                         4.459000       0.000000
                                                         1.531000       0.000000
                                                         0.530200       0.644896
                                                         0.175000       0.000000
                          3       3    3pz              63.420000       0.000000
                                                        14.660000       0.000000
                                                         4.459000       0.000000
                                                         1.531000       0.000000
                                                         0.530200       0.644896
                                                         0.175000       0.000000

                          3       4    4px              63.420000       0.000000
                                                        14.660000       0.000000
                                                         4.459000       0.000000
                                                         1.531000       0.000000
                                                         0.530200       0.000000
                                                         0.175000       0.161338
                          3       4    4py              63.420000       0.000000
                                                        14.660000       0.000000
                                                         4.459000       0.000000
                                                         1.531000       0.000000
                                                         0.530200       0.000000
                                                         0.175000       0.161338
                          3       4    4pz              63.420000       0.000000
                                                        14.660000       0.000000
                                                         4.459000       0.000000
                                                         1.531000       0.000000
                                                         0.530200       0.000000
                                                         0.175000       0.161338

                          4       1    1px               0.053480       0.036659
                          4       1    1py               0.053480       0.036659
                          4       1    1pz               0.053480       0.036659

                          5       1    1dx2              3.775000      16.827288
                                                         1.300000       0.000000
                                                         0.444000       0.000000
                          5       1    1dxy              3.775000      29.145718
                                                         1.300000       0.000000
                                                         0.444000       0.000000
                          5       1    1dxz              3.775000      29.145718
                                                         1.300000       0.000000
                                                         0.444000       0.000000
                          5       1    1dy2              3.775000      16.827288
                                                         1.300000       0.000000
                                                         0.444000       0.000000
                          5       1    1dyz              3.775000      29.145718
                                                         1.300000       0.000000
                                                         0.444000       0.000000
                          5       1    1dz2              3.775000      16.827288
                                                         1.300000       0.000000
                                                         0.444000       0.000000

                          5       2    2dx2              3.775000       0.000000
                                                         1.300000       2.605016
                                                         0.444000       0.000000
                          5       2    2dxy              3.775000       0.000000
                                                         1.300000       4.512019
                                                         0.444000       0.000000
                          5       2    2dxz              3.775000       0.000000
                                                         1.300000       4.512019
                                                         0.444000       0.000000
                          5       2    2dy2              3.775000       0.000000
                                                         1.300000       2.605016
                                                         0.444000       0.000000
                          5       2    2dyz              3.775000       0.000000
                                                         1.300000       4.512019
                                                         0.444000       0.000000
                          5       2    2dz2              3.775000       0.000000
                                                         1.300000       2.605016
                                                         0.444000       0.000000

                          5       3    3dx2              3.775000       0.000000
                                                         1.300000       0.000000
                                                         0.444000       0.397493
                          5       3    3dxy              3.775000       0.000000
                                                         1.300000       0.000000
                                                         0.444000       0.688478
                          5       3    3dxz              3.775000       0.000000
                                                         1.300000       0.000000
                                                         0.444000       0.688478
                          5       3    3dy2              3.775000       0.000000
                                                         1.300000       0.000000
                                                         0.444000       0.397493
                          5       3    3dyz              3.775000       0.000000
                                                         1.300000       0.000000
                                                         0.444000       0.688478
                          5       3    3dz2              3.775000       0.000000
                                                         1.300000       0.000000
                                                         0.444000       0.397493

                          6       1    1dx2              0.154000       0.062312
                          6       1    1dxy              0.154000       0.107927
                          6       1    1dxz              0.154000       0.107927
                          6       1    1dy2              0.154000       0.062312
                          6       1    1dyz              0.154000       0.107927
                          6       1    1dz2              0.154000       0.062312

                          7       1    1fx3              2.666000      13.370258
                                                         0.859000       0.000000
                          7       1    1fx2y             2.666000      29.896805
                                                         0.859000       0.000000
                          7       1    1fx2z             2.666000      29.896805
                                                         0.859000       0.000000
                          7       1    1fxy2             2.666000      29.896805
                                                         0.859000       0.000000
                          7       1    1fxyz             2.666000      51.782785
                                                         0.859000       0.000000
                          7       1    1fxz2             2.666000      29.896805
                                                         0.859000       0.000000
                          7       1    1fy3              2.666000      13.370258
                                                         0.859000       0.000000
                          7       1    1fy2z             2.666000      29.896805
                                                         0.859000       0.000000
                          7       1    1fyz2             2.666000      29.896805
                                                         0.859000       0.000000
                          7       1    1fz3              2.666000      13.370258
                                                         0.859000       0.000000

                          7       2    2fx3              2.666000       0.000000
                                                         0.859000       1.045777
                          7       2    2fx2y             2.666000       0.000000
                                                         0.859000       2.338428
                          7       2    2fx2z             2.666000       0.000000
                                                         0.859000       2.338428
                          7       2    2fxy2             2.666000       0.000000
                                                         0.859000       2.338428
                          7       2    2fxyz             2.666000       0.000000
                                                         0.859000       4.050277
                          7       2    2fxz2             2.666000       0.000000
                                                         0.859000       2.338428
                          7       2    2fy3              2.666000       0.000000
                                                         0.859000       1.045777
                          7       2    2fy2z             2.666000       0.000000
                                                         0.859000       2.338428
                          7       2    2fyz2             2.666000       0.000000
                                                         0.859000       2.338428
                          7       2    2fz3              2.666000       0.000000
                                                         0.859000       1.045777

                          8       1    1fx3              0.324000       0.116595
                          8       1    1fx2y             0.324000       0.260715
                          8       1    1fx2z             0.324000       0.260715
                          8       1    1fxy2             0.324000       0.260715
                          8       1    1fxyz             0.324000       0.451571
                          8       1    1fxz2             0.324000       0.260715
                          8       1    1fy3              0.324000       0.116595
                          8       1    1fy2z             0.324000       0.260715
                          8       1    1fyz2             0.324000       0.260715
                          8       1    1fz3              0.324000       0.116595

                          9       1    1gx4              1.846000       6.005824
                          9       1    1gx3y             1.846000      15.889916
                          9       1    1gx3z             1.846000      15.889916
                          9       1    1gx2y2            1.846000      20.513794
                          9       1    1gx2yz            1.846000      35.530933
                          9       1    1gx2z2            1.846000      20.513794
                          9       1    1gxy3             1.846000      15.889916
                          9       1    1gxy2z            1.846000      35.530933
                          9       1    1gxyz2            1.846000      35.530933
                          9       1    1gxz3             1.846000      15.889916
                          9       1    1gy4              1.846000       6.005824
                          9       1    1gy3z             1.846000      15.889916
                          9       1    1gy2z2            1.846000      20.513794
                          9       1    1gyz3             1.846000      15.889916
                          9       1    1gz4              1.846000       6.005824

                         10       1    1gx4              0.714000       0.440662
                         10       1    1gx3y             0.714000       1.165882
                         10       1    1gx3z             0.714000       1.165882
                         10       1    1gx2y2            0.714000       1.505147
                         10       1    1gx2yz            0.714000       2.606991
                         10       1    1gx2z2            0.714000       1.505147
                         10       1    1gxy3             0.714000       1.165882
                         10       1    1gxy2z            0.714000       2.606991
                         10       1    1gxyz2            0.714000       2.606991
                         10       1    1gxz3             0.714000       1.165882
                         10       1    1gy4              0.714000       0.440662
                         10       1    1gy3z             0.714000       1.165882
                         10       1    1gy2z2            0.714000       1.505147
                         10       1    1gyz3             0.714000       1.165882
                         10       1    1gz4              0.714000       0.440662

       Atomic covalent radius [Angstrom]:                                  0.730

       Atomic van der Waals radius [Angstrom]:                             1.520

     The atoms of this atomic kind are PAW atoms (GAPW):
       Hard Gaussian function radius:                                      1.512
       Rho0 radius:                                                        1.512
       Maximum GTO radius used for PAW projector construction:            24.566

     GAPW Soft Basis Set                                        aug-cc-pVQZ_soft

       Number of orbital shell sets:                                          10
       Number of orbital shells:                                              20
       Number of primitive Cartesian functions:                               17
       Number of Cartesian basis functions:                                  105
       Number of spherical basis functions:                                   80
       Norm type:                                                              2

       Normalised Cartesian orbitals:

                        Set   Shell   Orbital            Exponent    Coefficient

                          1       1    1s                1.428000       0.016380
                                                         0.554700      -0.001146
                                                         0.206700       0.000208

                          1       2    2s                1.428000       0.931014
                                                         0.554700       0.000000
                                                         0.206700       0.000000

                          1       3    3s                1.428000       0.000000
                                                         0.554700       0.458093
                                                         0.206700       0.000000

                          1       4    4s                1.428000       0.269044
                                                         0.554700       0.268501
                                                         0.206700       0.060656

                          1       5    5s                1.428000       0.000000
                                                         0.554700       0.000000
                                                         0.206700       0.218482

                          2       1    1s                0.069590       0.096565

                          3       1    1px               1.531000       2.427499
                                                         0.530200       0.000000
                                                         0.175000       0.000000
                          3       1    1py               1.531000       2.427499
                                                         0.530200       0.000000
                                                         0.175000       0.000000
                          3       1    1pz               1.531000       2.427499
                                                         0.530200       0.000000
                                                         0.175000       0.000000

                          3       2    2px               1.531000       0.865964
                                                         0.530200       0.289113
                                                         0.175000       0.039518
                          3       2    2py               1.531000       0.865964
                                                         0.530200       0.289113
                                                         0.175000       0.039518
                          3       2    2pz               1.531000       0.865964
                                                         0.530200       0.289113
                                                         0.175000       0.039518

                          3       3    3px               1.531000       0.000000
                                                         0.530200       0.644896
                                                         0.175000       0.000000
                          3       3    3py               1.531000       0.000000
                                                         0.530200       0.644896
                                                         0.175000       0.000000
                          3       3    3pz               1.531000       0.000000
                                                         0.530200       0.644896
                                                         0.175000       0.000000

                          3       4    4px               1.531000       0.000000
                                                         0.530200       0.000000
                                                         0.175000       0.161338
                          3       4    4py               1.531000       0.000000
                                                         0.530200       0.000000
                                                         0.175000       0.161338
                          3       4    4pz               1.531000       0.000000
                                                         0.530200       0.000000
                                                         0.175000       0.161338

                          4       1    1px               0.053480       0.036659
                          4       1    1py               0.053480       0.036659
                          4       1    1pz               0.053480       0.036659

                          5       1    1dx2              3.775000      16.827288
                                                         1.300000       0.000000
                                                         0.444000       0.000000
                          5       1    1dxy              3.775000      29.145718
                                                         1.300000       0.000000
                                                         0.444000       0.000000
                          5       1    1dxz              3.775000      29.145718
                                                         1.300000       0.000000
                                                         0.444000       0.000000
                          5       1    1dy2              3.775000      16.827288
                                                         1.300000       0.000000
                                                         0.444000       0.000000
                          5       1    1dyz              3.775000      29.145718
                                                         1.300000       0.000000
                                                         0.444000       0.000000
                          5       1    1dz2              3.775000      16.827288
                                                         1.300000       0.000000
                                                         0.444000       0.000000

                          5       2    2dx2              3.775000       0.000000
                                                         1.300000       2.605016
                                                         0.444000       0.000000
                          5       2    2dxy              3.775000       0.000000
                                                         1.300000       4.512019
                                                         0.444000       0.000000
                          5       2    2dxz              3.775000       0.000000
                                                         1.300000       4.512019
                                                         0.444000       0.000000
                          5       2    2dy2              3.775000       0.000000
                                                         1.300000       2.605016
                                                         0.444000       0.000000
                          5       2    2dyz              3.775000       0.000000
                                                         1.300000       4.512019
                                                         0.444000       0.000000
                          5       2    2dz2              3.775000       0.000000
                                                         1.300000       2.605016
                                                         0.444000       0.000000

                          5       3    3dx2              3.775000       0.000000
                                                         1.300000       0.000000
                                                         0.444000       0.397493
                          5       3    3dxy              3.775000       0.000000
                                                         1.300000       0.000000
                                                         0.444000       0.688478
                          5       3    3dxz              3.775000       0.000000
                                                         1.300000       0.000000
                                                         0.444000       0.688478
                          5       3    3dy2              3.775000       0.000000
                                                         1.300000       0.000000
                                                         0.444000       0.397493
                          5       3    3dyz              3.775000       0.000000
                                                         1.300000       0.000000
                                                         0.444000       0.688478
                          5       3    3dz2              3.775000       0.000000
                                                         1.300000       0.000000
                                                         0.444000       0.397493

                          6       1    1dx2              0.154000       0.062312
                          6       1    1dxy              0.154000       0.107927
                          6       1    1dxz              0.154000       0.107927
                          6       1    1dy2              0.154000       0.062312
                          6       1    1dyz              0.154000       0.107927
                          6       1    1dz2              0.154000       0.062312

                          7       1    1fx3              2.666000      13.370258
                                                         0.859000       0.000000
                          7       1    1fx2y             2.666000      29.896805
                                                         0.859000       0.000000
                          7       1    1fx2z             2.666000      29.896805
                                                         0.859000       0.000000
                          7       1    1fxy2             2.666000      29.896805
                                                         0.859000       0.000000
                          7       1    1fxyz             2.666000      51.782785
                                                         0.859000       0.000000
                          7       1    1fxz2             2.666000      29.896805
                                                         0.859000       0.000000
                          7       1    1fy3              2.666000      13.370258
                                                         0.859000       0.000000
                          7       1    1fy2z             2.666000      29.896805
                                                         0.859000       0.000000
                          7       1    1fyz2             2.666000      29.896805
                                                         0.859000       0.000000
                          7       1    1fz3              2.666000      13.370258
                                                         0.859000       0.000000

                          7       2    2fx3              2.666000       0.000000
                                                         0.859000       1.045777
                          7       2    2fx2y             2.666000       0.000000
                                                         0.859000       2.338428
                          7       2    2fx2z             2.666000       0.000000
                                                         0.859000       2.338428
                          7       2    2fxy2             2.666000       0.000000
                                                         0.859000       2.338428
                          7       2    2fxyz             2.666000       0.000000
                                                         0.859000       4.050277
                          7       2    2fxz2             2.666000       0.000000
                                                         0.859000       2.338428
                          7       2    2fy3              2.666000       0.000000
                                                         0.859000       1.045777
                          7       2    2fy2z             2.666000       0.000000
                                                         0.859000       2.338428
                          7       2    2fyz2             2.666000       0.000000
                                                         0.859000       2.338428
                          7       2    2fz3              2.666000       0.000000
                                                         0.859000       1.045777

                          8       1    1fx3              0.324000       0.116595
                          8       1    1fx2y             0.324000       0.260715
                          8       1    1fx2z             0.324000       0.260715
                          8       1    1fxy2             0.324000       0.260715
                          8       1    1fxyz             0.324000       0.451571
                          8       1    1fxz2             0.324000       0.260715
                          8       1    1fy3              0.324000       0.116595
                          8       1    1fy2z             0.324000       0.260715
                          8       1    1fyz2             0.324000       0.260715
                          8       1    1fz3              0.324000       0.116595

                          9       1    1gx4              1.846000       6.005824
                          9       1    1gx3y             1.846000      15.889916
                          9       1    1gx3z             1.846000      15.889916
                          9       1    1gx2y2            1.846000      20.513794
                          9       1    1gx2yz            1.846000      35.530933
                          9       1    1gx2z2            1.846000      20.513794
                          9       1    1gxy3             1.846000      15.889916
                          9       1    1gxy2z            1.846000      35.530933
                          9       1    1gxyz2            1.846000      35.530933
                          9       1    1gxz3             1.846000      15.889916
                          9       1    1gy4              1.846000       6.005824
                          9       1    1gy3z             1.846000      15.889916
                          9       1    1gy2z2            1.846000      20.513794
                          9       1    1gyz3             1.846000      15.889916
                          9       1    1gz4              1.846000       6.005824

                         10       1    1gx4              0.714000       0.440662
                         10       1    1gx3y             0.714000       1.165882
                         10       1    1gx3z             0.714000       1.165882
                         10       1    1gx2y2            0.714000       1.505147
                         10       1    1gx2yz            0.714000       2.606991
                         10       1    1gx2z2            0.714000       1.505147
                         10       1    1gxy3             0.714000       1.165882
                         10       1    1gxy2z            0.714000       2.606991
                         10       1    1gxyz2            0.714000       2.606991
                         10       1    1gxz3             0.714000       1.165882
                         10       1    1gy4              0.714000       0.440662
                         10       1    1gy3z             0.714000       1.165882
                         10       1    1gy2z2            0.714000       1.505147
                         10       1    1gyz3             0.714000       1.165882
                         10       1    1gz4              0.714000       0.440662

     AE Potential information for                                            ALL

       Description:                                       All-electron potential
                                          Krack, Parrinello, PCCP 2, 2105 (2000)

       Gaussian exponent of the core charge distribution:               8.154466
       Electronic configuration (s p d ...):                           4   4   0


 MOLECULE KIND INFORMATION


 All atoms are their own molecule, skipping detailed information


 TOTAL NUMBERS AND MAXIMUM NUMBERS

  Total number of            - Atomic kinds:                                   2
                             - Atoms:                                          3
                             - Shell sets:                                    26
                             - Shells:                                        48
                             - Primitive Cartesian functions:                 61
                             - Cartesian basis functions:                    215
                             - Spherical basis functions:                    172

  Maximum angular momentum of the orbital basis functions:                     4


 MODULE QUICKSTEP: ATOMIC COORDINATES IN ANGSTROM

   Atom Kind Element         X             Y             Z       Z(eff)     Mass
      1    1 H     1      4.765254      4.000000      4.298513   1.0000   1.0079
      2    1 H     1      3.234746      4.000000      4.298513   1.0000   1.0079
      3    2 O     8      4.000000      4.000000      3.701487   8.0000  15.9994



 SCF PARAMETERS         Density guess:                                    ATOMIC
                        --------------------------------------------------------
                        max_scf:                                              20
                        max_scf_history:                                       0
                        max_diis:                                              4
                        --------------------------------------------------------
                        eps_scf:                                        1.00E-07
                        eps_scf_history:                                0.00E+00
                        eps_diis:                                       1.00E-01
                        eps_eigval:                                     1.00E-05
                        --------------------------------------------------------
                        level_shift [a.u.]:                             0.000000
                        --------------------------------------------------------
                        Outer loop SCF in use 
                        No variables optimised in outer loop
                        eps_scf                                         1.00E-07
                        max_scf                                               50
                        No outer loop optimization
                        step_size                                       5.00E-01

 PW_GRID| Information for grid number                                          1
 PW_GRID| Grid distributed over                                   128 processors
 PW_GRID| Real space group dimensions                                   128    1
 PW_GRID| the grid is blocked:                                                NO
 PW_GRID| Cutoff [a.u.]                                                   1200.0
 PW_GRID| spherical cutoff:                                                   NO
 PW_GRID|   Bounds   1           -120     119                Points:         240
 PW_GRID|   Bounds   2           -120     119                Points:         240
 PW_GRID|   Bounds   3           -120     119                Points:         240
 PW_GRID| Volume element (a.u.^3)  0.2499E-03     Volume (a.u.^3)      3455.1473
 PW_GRID| Grid span                                                    FULLSPACE
 PW_GRID|   Distribution                         Average         Max         Min
 PW_GRID|   G-Vectors                           108000.0      108000      108000
 PW_GRID|   G-Rays                                 450.0         450         450
 PW_GRID|   Real Space Points                   108000.0      115200       57600

 PW_GRID| Information for grid number                                          2
 PW_GRID| Number of the reference grid                                         1
 PW_GRID| Grid distributed over                                   128 processors
 PW_GRID| Real space group dimensions                                   128    1
 PW_GRID| the grid is blocked:                                                NO
 PW_GRID| Cutoff [a.u.]                                                    600.0
 PW_GRID| spherical cutoff:                                                   NO
 PW_GRID|   Bounds   1            -90      89                Points:         180
 PW_GRID|   Bounds   2            -90      89                Points:         180
 PW_GRID|   Bounds   3            -90      89                Points:         180
 PW_GRID| Volume element (a.u.^3)  0.5924E-03     Volume (a.u.^3)      3455.1473
 PW_GRID| Grid span                                                    FULLSPACE
 PW_GRID|   Distribution                         Average         Max         Min
 PW_GRID|   G-Vectors                            45562.5       45720       45360
 PW_GRID|   G-Rays                                 253.1         254         252
 PW_GRID|   Real Space Points                    45562.5       64800       32400

 PW_GRID| Information for grid number                                          3
 PW_GRID| Number of the reference grid                                         2
[...]
 flops     5 x     5 x    46              9480600       0.0%    100.0%      0.0%
 flops    46 x    80 x     5             10156800       0.0%    100.0%      0.0%
 flops    80 x    46 x     5             10156800       0.0%    100.0%      0.0%
 flops    46 x    32 x    46             10833920       0.0%    100.0%      0.0%
 flops    46 x    46 x     5             17520480       0.0%    100.0%      0.0%
 flops    80 x    80 x     5             17664000       0.0%    100.0%      0.0%
 flops    80 x     5 x    80             50304000       0.0%    100.0%      0.0%
 flops    80 x     5 x    46             53212800       0.0%    100.0%      0.0%
 flops    46 x     5 x    80             54611200       0.0%    100.0%      0.0%
 flops    46 x     5 x    46             65469040       0.0%    100.0%      0.0%
 flops inhomo. stacks                           0       0.0%      0.0%      0.0%
 flops total                       345.265154E+06       0.0%    100.0%      0.0%
 flops max/rank                    159.086282E+06       0.0%    100.0%      0.0%
 matmuls inhomo. stacks                         0       0.0%      0.0%      0.0%
 matmuls total                              15260       0.0%    100.0%      0.0%
 number of processed stacks                 15260       0.0%    100.0%      0.0%
 average stack size                                     0.0       1.0       0.0
 marketing flops                   383.367232E+06
 -------------------------------------------------------------------------------
 # multiplications                           1211
 max memory usage/rank             759.586816E+06
 # max total images/rank                        2
 # max 3D layers                                1
 # MPI messages exchanged                 4495232
 MPI messages size (bytes):
  total size                         2.415899E+09
  min size                           0.000000E+00
  max size                          80.640000E+03
  average size                     537.435974E+00
 MPI breakdown and total messages size (bytes):
             size <=      128             4384357                        0
       128 < size <=     8192               52540                129751056
      8192 < size <=    32768               29445                617427200
     32768 < size <=   131072               28890               1668720960
    131072 < size <=  4194304                   0                        0
   4194304 < size <= 16777216                   0                        0
  16777216 < size                               0                        0
 -------------------------------------------------------------------------------

 *** WARNING in dbcsr_mm.F:291 :: Using a non-square number of MPI ranks ***
 *** might lead to poor performance. Used ranks: 128 Suggested: 121 256  ***

 -------------------------------------------------------------------------------
 -                                                                             -
 -                      DBCSR MESSAGE PASSING PERFORMANCE                      -
 -                                                                             -
 -------------------------------------------------------------------------------
 ROUTINE             CALLS      AVE VOLUME [Bytes]
 MP_Bcast               24                     12.
 MP_Allreduce         5075                      8.
 MP_Alltoall         16913                  37476.
 MP_ISend            75664                   2100.
 MP_IRecv            75030                   1563.
 -------------------------------------------------------------------------------

 -------------------------------------------------------------------------------
 -                                                                             -
 -                                DBM STATISTICS                               -
 -                                                                             -
 -------------------------------------------------------------------------------
    M  x    N  x    K                                          COUNT     PERCENT
 -------------------------------------------------------------------------------

 -------------------------------------------------------------------------------
 -                                                                             -
 -                                GRID STATISTICS                              -
 -                                                                             -
 -------------------------------------------------------------------------------
 LP    KERNEL             BACKEND                              COUNT     PERCENT
 3     collocate ortho    CPU                                  42920       9.27%
 3     integrate ortho    CPU                                  42050       9.08%
 2     collocate ortho    CPU                                  41736       9.01%
 2     integrate ortho    CPU                                  40890       8.83%
 2     collocate general  CPU                                  33408       7.21%
 1     collocate ortho    CPU                                  33152       7.16%
 2     integrate general  CPU                                  32640       7.05%
 1     integrate ortho    CPU                                  32480       7.01%
 4     collocate ortho    CPU                                  31820       6.87%
 4     integrate ortho    CPU                                  31175       6.73%
 0     collocate ortho    CPU                                  19388       4.19%
 0     integrate ortho    CPU                                  18995       4.10%
 5     collocate ortho    CPU                                  18648       4.03%
 5     integrate ortho    CPU                                  18270       3.94%
 6     collocate ortho    CPU                                   9028       1.95%
 6     integrate ortho    CPU                                   8845       1.91%
 7     collocate ortho    CPU                                   2960       0.64%
 7     integrate ortho    CPU                                   2900       0.63%
 8     collocate ortho    CPU                                    592       0.13%
 8     integrate ortho    CPU                                    580       0.13%
 0     collocate general  CPU                                    384       0.08%
 0     integrate general  CPU                                    384       0.08%
 -------------------------------------------------------------------------------

 MEMORY| Estimated peak process memory [MiB]                                 724

 -------------------------------------------------------------------------------
 ----                             MULTIGRID INFO                            ----
 -------------------------------------------------------------------------------
 count for grid        1:        9191199          cutoff [a.u.]          600.00
 count for grid        2:        2303313          cutoff [a.u.]          200.00
 count for grid        3:        1525597          cutoff [a.u.]           66.67
 count for grid        4:         480207          cutoff [a.u.]           22.22
 count for grid        5:          50605          cutoff [a.u.]            7.41
 total gridlevel count  :       13550921

 -------------------------------------------------------------------------------
 -                                                                             -
 -                         MESSAGE PASSING PERFORMANCE                         -
 -                                                                             -
 -------------------------------------------------------------------------------

 ROUTINE             CALLS      AVE VOLUME [Bytes]
 MP_Group                6
 MP_Bcast             1218                 340125.
 MP_Allreduce         6950                  18813.
 MP_Sync               663
 MP_Alltoall          4183                1397239.
 MP_SendRecv         75184                  23360.
 MP_ISendRecv        73660                  23360.
 MP_Wait             97849
 MP_comm_split          72
 MP_ISend            24972                 195546.
 MP_IRecv            27575                 177107.
 -------------------------------------------------------------------------------


 -------------------------------------------------------------------------------
 -                                                                             -
 -                           R E F E R E N C E S                               -
 -                                                                             -
 -------------------------------------------------------------------------------
 
 CP2K version 2024.1 (Development Version), the CP2K developers group (2024).
 CP2K is freely available from https://www.cp2k.org/ .

 Kuehne,Thomas D.; Iannuzzi,Marcella; Del Ben,Mauro;
 Rybkin,Vladimir V.; Seewald,Patrick; Stein,Frederick; Laino,Teodoro;
 Khaliullin,Rustam Z.; Schuett,Ole; Schiffmann,Florian; Golze,Dorothea;
 Wilhelm,Jan; Chulkov,Sergey; Bani-Hashemian,Mohammad Hossein;
 Weber,Valery; Borstnik,Urban; Taillefumier,Mathieu;
 Jakobovits,Alice Shoshana; Lazzaro,Alfio; Pabst,Hans; Mueller,Tiziano;
 Schade,Robert; Guidon,Manuel; Andermatt,Samuel; Holmberg,Nico;
 Schenter,Gregory K.; Hehn,Anna; Bussy,Augustin; Belleflamme,Fabian;
 Tabacchi,Gloria; Gloess,Andreas; Lass,Michael; Bethune,Iain;
 Mundy,Christopher J.; Plessl,Christian; Watkins,Matt;
 VandeVondele,Joost; Krack,Matthias; Hutter,Juerg. 
 The Journal of Chemical Physics, 152 (19), (2020). 
 CP2K: An electronic structure and molecular dynamics software package -
 Quickstep: Efficient and accurate electronic structure calculations.
 https://doi.org/10.1063/5.0007045

 Schuett, Ole; Messmer, Peter; Hutter, Juerg; VandeVondele, Joost. 
 Electronic Structure Calculations on Graphics Processing Units, John
 Wiley & Sons, Ltd, 173-190 (2016). 
 GPU-Accelerated Sparse Matrix-Matrix Multiplication for
 Linear Scaling Density Functional Theory.
 https://doi.org/10.1002/9781118670712.ch8

 Heinecke, A; Henry, G; Hutchinson, M; Pabst, H. 
 Proceedings of Intl. Supercomputing Conference, 981-991 (2016). 
 LIBXSMM: Accelerating Small Matrix Multiplications
 by Runtime Code Generation.
 https://doi.org/10.1109/SC.2016.83

 Borstnik, U; VandeVondele, J; Weber, V; Hutter, J. 
 PARALLEL COMPUTING, 40 (5-6), 47-58 (2014). 
 Sparse matrix multiplication: The distributed block-compressed sparse
 row library.
 https://doi.org/10.1016/j.parco.2014.03.012

 Hutter, J; Iannuzzi, M; Schiffmann, F; VandeVondele, J. 
 WIREs Comput Mol Sci., 4 (1), 15-25 (2014). 
 CP2K: atomistic simulations of condensed matter systems.
 https://doi.org/10.1002/wcms.1159

 Frigo, M; Johnson, SG. 
 PROCEEDINGS OF THE IEEE, 93 (2), 216-231 (2005). 
 The design and implementation of FFTW3.
 https://doi.org/10.1109/JPROC.2004.840301

 Iannuzzi, M; Chassaing, T; Wallman, T; Hutter, J. 
 CHIMIA, 59 (7-8), 499-503 (2005). 
 Ground and excited state density functional calculations with the
 Gaussian and augmented-plane-wave method.
 https://doi.org/10.2533/000942905777676164

 VandeVondele, J; Hutter, J. 
 JOURNAL OF CHEMICAL PHYSICS, 118 (10), 4365-4369 (2003). 
 An efficient orbital transformation method for electronic structure
 calculations.
 https://doi.org/10.1063/1.1543154

 Martin,Richard L.. 
 The Journal of Chemical Physics, 118 (11), 4775-4777 (2003). 
 Natural transition orbitals.
 https://doi.org/10.1063/1.1558471

 Lippert, G; Hutter, J; Parrinello, M. 
 THEORETICAL CHEMISTRY ACCOUNTS, 103 (2), 124-140 (1999). 
 The Gaussian and augmented-plane-wave density functional method for ab
 initio molecular dynamics simulations.
 https://doi.org/10.1007/s002140050523

 Krack, M; Parrinello, M. 
 PHYSICAL CHEMISTRY CHEMICAL PHYSICS, 2 (10), 2105-2112 (2000). 
 All-electron ab-initio molecular dynamics.
 https://doi.org/10.1039/b001167n

 Martyna, GJ; Tuckerman, ME. 
 JOURNAL OF CHEMICAL PHYSICS, 110 (6), 2810-2821 (1999). 
 A reciprocal space based method for treating long range interactions in
 ab initio and force-field-based calculations in clusters.
 https://doi.org/10.1063/1.477923

 Perdew, JP; Burke, K; Ernzerhof, M. 
 PHYSICAL REVIEW LETTERS, 77 (18), 3865-3868 (1996). 
 Generalized gradient approximation made simple.
 https://doi.org/10.1103/PhysRevLett.77.3865


 -------------------------------------------------------------------------------
 -                                                                             -
 -                                T I M I N G                                  -
 -                                                                             -
 -------------------------------------------------------------------------------
 SUBROUTINE                       CALLS  ASD         SELF TIME        TOTAL TIME
                                MAXIMUM       AVERAGE  MAXIMUM  AVERAGE  MAXIMUM
 CP2K                                 1  1.0    0.026    0.063 2207.141 2207.160
 qs_energies                          1  2.0    0.002    0.014 2204.699 2204.714
 qs_energies_properties               1  3.0    0.000    0.011 1802.021 1802.035
 tddfpt                               1  4.0    0.001    0.024 1802.021 1802.035
 tddfpt_soc_energies                  1  5.0    0.000    0.001 1793.754 1793.771
 tddfpt_energies                      2  6.0    0.001    0.011 1740.570 1740.585
 tddfpt_davidson_solver               4  7.0    0.005    0.022 1631.830 1631.854
 tddfpt_compute_Aop_evects           13  8.0    0.000    0.009 1209.254 1209.323
 fhxc_kernel                         13  9.0    0.005    0.040 1024.471 1024.560
 dbcsr_multiply_generic            1211 10.8    0.110    0.243  828.245  841.257
 cp_dbcsr_sm_fm_multiply            563  9.3    0.008    0.040  733.261  737.342
 multiply_cannon                   1211 11.8    3.272    3.756  473.662  490.388
 multiply_cannon_loop              1211 12.8    0.640    0.794  422.866  438.776
 pw_transfer                       3250 12.3    0.093    0.122  415.014  416.181
 fft_wrap_pw1pw2                   2993 13.3    0.008    0.019  414.619  415.826
 fft3d_ps                          2993 15.3    7.327    8.430  413.117  414.401
 scf_env_do_scf                       1  3.0    0.000    0.000  393.004  393.054
 scf_env_do_scf_inner_loop           15  4.0    0.001    0.012  373.928  373.949
 multiply_cannon_multrec          19376 13.8  322.105  373.789  322.111  373.813
 dbcsr_complete_redistribute       1609 11.4    0.057    0.183  339.860  344.712
 cp_dbcsr_sm_fm_multiply_core       563 10.3    0.001    0.001  327.510  337.008
 tddfpt_orthonormalize_psi1_psi      15  7.9    0.008    0.057  325.389  326.519
 copy_dbcsr_to_fm                   625 10.2    0.006    0.047  290.639  297.325
 qs_scf_new_mos                      15  5.0    0.000    0.000  292.145  292.725
 qs_scf_loop_do_ot                   15  6.0    0.000    0.000  292.145  292.725
 ot_scf_mini                         15  7.0    0.000    0.000  279.464  280.162
 cp_dbcsr_plus_fm_fm_t_native       131 10.0    0.002    0.012  256.542  258.647
 qs_rho_update_rho_low              148  9.4    0.005    0.023  253.002  254.992
 mp_alltoall_z22v                  2993 17.3  233.962  237.321  233.962  237.321
 mp_sum_l                          5228 11.0  216.901  224.452  216.901  224.452
 calculate_rho_elec                 148 10.4    0.020    0.056  220.553  222.572
 fft_wrap_pw1pw2_600               1820 14.5    0.148    0.180  209.411  210.918
 copy_fm_to_dbcsr                   984 10.6    0.003    0.015  197.469  201.748
 mp_waitall_1                    212213 14.6  143.440  193.809  143.440  193.809
 density_rs2pw                      148 11.4    0.005    0.033  187.925  189.004
 ot_mini                             15  8.0    0.002    0.014  188.301  188.626
 integrate_v_rspace                 145  9.9    0.003    0.026  183.278  185.310
 tddfpt_apply_energy_diff            13  9.0    0.000    0.001  184.782  184.857
 mp_alltoall_i22                   2249 12.3  174.331  184.170  174.331  184.170
 potential_pw2rs                    145 10.9    0.005    0.022  176.290  176.693
 mp_alltoall_d11v                  7040 12.6  154.488  169.286  154.488  169.286
 qs_ot_get_derivative                15  9.0    0.000    0.000  156.173  156.909
 dbcsr_desymmetrize_deep            626 11.2    0.010    0.036  147.896  155.223
 mp_sum_dv                         3901 10.3  146.533  149.209  146.533  149.209
 cp_fm_trace_a1b1t1_aa             3325  9.0    7.122    9.468  135.915  136.922
 mp_alltoall_z11v                   879 17.2  131.327  133.289  131.327  133.289
 tddfpt_apply_xc_analytic           130 10.0    0.052    0.071  124.003  124.347
 xc_pw_derive                      1059 11.7    0.005    0.014  119.083  119.841
 tddfpt_compute_residual_vects        9  8.0    0.000    0.000  117.223  117.654
 qs_ot_get_derivative_diag           14 10.0    0.000    0.000  115.314  115.980
 multiply_cannon_metrocomm3       19376 13.8    0.033    0.060   81.857  115.880
 x_to_yz                           1002 16.0    2.884    3.314  109.012  110.130
 make_m2s                          2422 11.8    0.022    0.035   99.168  108.697
 make_images                       2422 12.8    6.724    7.220   98.631  106.892
 yz_to_x                            819 17.0    0.159    0.225   93.835   95.429
 make_images_sizes                 2422 13.8    0.004    0.024   90.954   92.810
 mp_alltoall_i44                   2422 14.8   90.950   92.808   90.950   92.808
 mp_alltoall_i11v                  5495 12.4   84.257   86.731   84.257   86.731
 xz_to_yz                           592 16.4    1.500    1.918   84.108   85.839
 yz_to_xz                           580 15.9    1.403    1.669   82.434   83.639
 tddfpt_print_nto_analysis            2  7.0    0.002    0.006   69.357   69.522
 fft_wrap_pw1pw2_70                 293 14.2    0.003    0.016   68.758   69.464
 xc_pw_divergence                   145 11.8    0.002    0.012   67.375   68.166
 mp_cart_sub                       1260 12.2   64.451   67.284   64.451   67.284
 transfer_rs2pw                     828 12.3    0.005    0.034   63.319   64.527
 transfer_pw2rs                     811 11.8    0.003    0.015   62.534   63.423
 xc_calc_2nd_deriv_analytical       390 11.0    1.582    2.153   61.795   62.184
 qs_ot_get_p                         16  7.9    0.000    0.000   61.123   61.828
 qs_ks_update_qs_env                 16  5.0    0.000    0.000   59.123   59.543
 rebuild_ks_matrix                   15  6.0    0.004    0.022   59.037   59.458
 qs_ks_build_kohn_sham_matrix        15  7.0    0.006    0.026   59.034   59.456
 mp_sum_dm                         1256 11.3   54.800   55.608   54.800   55.608
 fft_wrap_pw1pw2_30                 293 14.2    0.002    0.014   52.920   53.635
 tddfpt_soc                           1  6.0    0.000    0.000   51.950   51.966
 tddfpt_soc_rcs                       1  7.0    0.012    0.030   51.950   51.965
 mp_allgather_i34                  1211 12.8   46.418   48.229   46.418   48.229
 mp_waitany                       18680 13.9   43.086   45.026   43.086   45.026
 multiply_cannon_metrocomm1       19376 13.8    0.017    0.048   17.821   44.331
 mp_cart_create                     634 12.1   40.494   44.198   40.494   44.198
 -------------------------------------------------------------------------------

 The number of warnings for this run is : 1
 
 -------------------------------------------------------------------------------
  **** **** ******  **  PROGRAM ENDED AT                 2024-01-12 14:45:50.968
 ***** ** ***  *** **   PROGRAM RAN ON                               nesh-srp312
 **    ****   ******    PROGRAM RAN BY                                  suphc355
 ***** **    ** ** **   PROGRAM PROCESS ID                               2615013
  **** **  *******  **  PROGRAM STOPPED IN /gxfs_work/cau/suphc355/homologes/H2X
                                           /AE/O
