 DBCSR| CPU Multiplication driver                                           XSMM (U)
 DBCSR| Multrec recursion limit                                              512 (U)
 DBCSR| Multiplication stack size                                           1000 (D)
 DBCSR| Maximum elements for images                                    UNLIMITED (U)
 DBCSR| Multiplicative factor virtual images                                   1 (U)
 DBCSR| Use multiplication densification                                       T (D)
 DBCSR| Multiplication size stacks                                             3 (U)
 DBCSR| Use memory pool for CPU allocation                                     F (U)
 DBCSR| Number of 3D layers                                               SINGLE (U)
 DBCSR| Use MPI memory allocation                                              F (U)
 DBCSR| Use RMA algorithm                                                      F (U)
 DBCSR| Use Communication thread                                               T (U)
 DBCSR| Communication thread load                                             87 (D)
 DBCSR| MPI: My process id                                                     0
 DBCSR| MPI: Number of processes                                             128
 DBCSR| OMP: Current number of threads                                         1
 DBCSR| OMP: Max number of threads                                             1
 DBCSR| Split modifier for TAS multiplication algorithm                  1.0E+00 (U)


  **** **** ******  **  PROGRAM STARTED AT               2024-02-06 09:01:00.193
 ***** ** ***  *** **   PROGRAM STARTED ON                           nesh-srp167
 **    ****   ******    PROGRAM STARTED BY                              suphc355
 ***** **    ** ** **   PROGRAM PROCESS ID                                989653
  **** **  *******  **  PROGRAM STARTED IN /gxfs_work/cau/suphc355/homologes/H2X
                                           /AE/O

 CP2K| version string:                 CP2K version 2024.1 (Development Version)
 CP2K| source code revision number:                                  git:b6f9133
 CP2K| cp2kflags: omp libint fftw3 libxc libgrpp parallel mpi_f08 scalapack cosm
 CP2K|            a xsmm spglib mkl
 CP2K| is freely available from                            https://www.cp2k.org/
 CP2K| Program compiled at                          Fr 26. Jan 09:14:30 CET 2024
 CP2K| Program compiled on                                           nesh-login3
 CP2K| Program compiled for                                                local
 CP2K| Data directory path            /gxfs_home/cau/suphc355/software/cp2k/data
 CP2K| Input file name                                                    AE.inp
 
 GLOBAL| Force Environment number                                              1
 GLOBAL| Basis set file name                                 ../../../basis_zora
 GLOBAL| Potential file name                                           POTENTIAL
 GLOBAL| MM Potential file name                                     MM_POTENTIAL
 GLOBAL| Coordinate file name                                            opt.xyz
 GLOBAL| Method name                                                        CP2K
 GLOBAL| Project name                                                     H2O_AE
 GLOBAL| Run type                                                         ENERGY
 GLOBAL| FFT library                                                       FFTW3
 GLOBAL| Diagonalization library                                       ScaLAPACK
 GLOBAL| DGEMM library                                                      BLAS
 GLOBAL| Orthonormality check for eigenvectors                          DISABLED
 GLOBAL| Matrix multiplication library                                     COSMA
 GLOBAL| All-to-all communication in single precision                          F
 GLOBAL| FFTs using library dependent lengths                                  F
 GLOBAL| Grid backend                                                       AUTO
 GLOBAL| Global print level                                               MEDIUM
 GLOBAL| MPI I/O enabled                                                       T
 GLOBAL| Total number of message passing processes                           128
 GLOBAL| Number of threads for this process                                    1
 GLOBAL| This output is from process                                           0
 GLOBAL| Stack size for threads created by OpenMP (OMP_STACKSIZE)        default
 GLOBAL| CPU model name                              Intel(R) Xeon(R) Gold 6426Y
 GLOBAL| CPUID                                                              1003

 MEMORY| system memory details [Kb]
 MEMORY|                        rank 0           min           max       average
 MEMORY| MemTotal            263786136     263786136     263786136     263786136
 MEMORY| MemFree             242351436     242076540     242351940     242177827
 MEMORY| Buffers               1050928       1050924       1078160       1068019
 MEMORY| Cached                1151040       1151040       1354076       1261041
 MEMORY| Slab                   703124        703124        805584        777292
 MEMORY| SReclaimable           221848        221848        253384        243075
 MEMORY| MemLikelyFree       244775252     244703300     244792844     244749963


 *** Fundamental physical constants (SI units) ***

 *** Literature: B. J. Mohr and B. N. Taylor,
 ***             CODATA recommended values of the fundamental physical
 ***             constants: 2006, Web Version 5.1
 ***             http://physics.nist.gov/constants

 Speed of light in vacuum [m/s]                             2.99792458000000E+08
 Magnetic constant or permeability of vacuum [N/A**2]       1.25663706143592E-06
 Electric constant or permittivity of vacuum [F/m]          8.85418781762039E-12
 Planck constant (h) [J*s]                                  6.62606896000000E-34
 Planck constant (h-bar) [J*s]                              1.05457162825177E-34
 Elementary charge [C]                                      1.60217648700000E-19
 Electron mass [kg]                                         9.10938215000000E-31
 Electron g factor [ ]                                     -2.00231930436220E+00
 Proton mass [kg]                                           1.67262163700000E-27
 Fine-structure constant                                    7.29735253760000E-03
 Rydberg constant [1/m]                                     1.09737315685270E+07
 Avogadro constant [1/mol]                                  6.02214179000000E+23
 Boltzmann constant [J/K]                                   1.38065040000000E-23
 Atomic mass unit [kg]                                      1.66053878200000E-27
 Bohr radius [m]                                            5.29177208590000E-11

 *** Conversion factors ***

 [u] -> [a.u.]                                              1.82288848426455E+03
 [Angstrom] -> [Bohr] = [a.u.]                              1.88972613288564E+00
 [a.u.] = [Bohr] -> [Angstrom]                              5.29177208590000E-01
 [a.u.] -> [s]                                              2.41888432650478E-17
 [a.u.] -> [fs]                                             2.41888432650478E-02
 [a.u.] -> [J]                                              4.35974393937059E-18
 [a.u.] -> [N]                                              8.23872205491840E-08
 [a.u.] -> [K]                                              3.15774647902944E+05
 [a.u.] -> [kJ/mol]                                         2.62549961709828E+03
 [a.u.] -> [kcal/mol]                                       6.27509468713739E+02
 [a.u.] -> [Pa]                                             2.94210107994716E+13
 [a.u.] -> [bar]                                            2.94210107994716E+08
 [a.u.] -> [atm]                                            2.90362800883016E+08
 [a.u.] -> [eV]                                             2.72113838565563E+01
 [a.u.] -> [Hz]                                             6.57968392072181E+15
 [a.u.] -> [1/cm] (wave numbers)                            2.19474631370540E+05
 [a.u./Bohr**2] -> [1/cm]                                   5.14048714338585E+03
 

 CELL_TOP| Volume [angstrom^3]:                                      8000.000000
 CELL_TOP| Vector a [angstrom    20.000     0.000     0.000   |a| =    20.000000
 CELL_TOP| Vector b [angstrom     0.000    20.000     0.000   |b| =    20.000000
 CELL_TOP| Vector c [angstrom     0.000     0.000    20.000   |c| =    20.000000
 CELL_TOP| Angle (b,c), alpha [degree]:                                90.000000
 CELL_TOP| Angle (a,c), beta  [degree]:                                90.000000
 CELL_TOP| Angle (a,b), gamma [degree]:                                90.000000
 CELL_TOP| Numerically orthorhombic:                                         YES
 CELL_TOP| Periodicity                                                      NONE
 
 GENERATE|  Preliminary Number of Bonds generated:                             0
 GENERATE|  Achieved consistency in connectivity generation.

 CELL| Volume [angstrom^3]:                                          8000.000000
 CELL| Vector a [angstrom]:      20.000     0.000     0.000   |a| =    20.000000
 CELL| Vector b [angstrom]:       0.000    20.000     0.000   |b| =    20.000000
 CELL| Vector c [angstrom]:       0.000     0.000    20.000   |c| =    20.000000
 CELL| Angle (b,c), alpha [degree]:                                    90.000000
 CELL| Angle (a,c), beta  [degree]:                                    90.000000
 CELL| Angle (a,b), gamma [degree]:                                    90.000000
 CELL| Numerically orthorhombic:                                             YES
 CELL| Periodicity                                                          NONE

 CELL_REF| Volume [angstrom^3]:                                      8000.000000
 CELL_REF| Vector a [angstrom    20.000     0.000     0.000   |a| =    20.000000
 CELL_REF| Vector b [angstrom     0.000    20.000     0.000   |b| =    20.000000
 CELL_REF| Vector c [angstrom     0.000     0.000    20.000   |c| =    20.000000
 CELL_REF| Angle (b,c), alpha [degree]:                                90.000000
 CELL_REF| Angle (a,c), beta  [degree]:                                90.000000
 CELL_REF| Angle (a,b), gamma [degree]:                                90.000000
 CELL_REF| Numerically orthorhombic:                                         YES
 CELL_REF| Periodicity                                                      NONE

 *******************************************************************************
 *******************************************************************************
 **                                                                           **
 **     #####                         ##              ##                      **
 **    ##   ##            ##          ##              ##                      **
 **   ##     ##                       ##            ######                    **
 **   ##     ##  ##   ##  ##   #####  ##  ##   ####   ##    #####    #####    **
 **   ##     ##  ##   ##  ##  ##      ## ##   ##      ##   ##   ##  ##   ##   **
 **   ##  ## ##  ##   ##  ##  ##      ####     ###    ##   ######   ######    **
 **    ##  ###   ##   ##  ##  ##      ## ##      ##   ##   ##       ##        **
 **     #######   #####   ##   #####  ##  ##  ####    ##    #####   ##        **
 **           ##                                                    ##        **
 **                                                                           **
 **                                                ... make the atoms dance   **
 **                                                                           **
 **            Copyright (C) by CP2K developers group (2000-2024)             **
 **                      J. Chem. Phys. 152, 194103 (2020)                    **
 **                                                                           **
 *******************************************************************************

 DFT| Spin restricted Kohn-Sham (RKS) calculation                            RKS
 DFT| Multiplicity                                                             1
 DFT| Number of spin states                                                    1
 DFT| Charge                                                                   0
 DFT| Self-interaction correction (SIC)                                       NO
 DFT| Cutoffs: density                                              1.000000E-10
 DFT|          gradient                                             1.000000E-10
 DFT|          tau                                                  1.000000E-10
 DFT|          cutoff_smoothing_range                               0.000000E+00
 DFT| XC density smoothing                                                  NONE
 DFT| XC derivatives                                                          PW

 FUNCTIONAL| PBE:
 FUNCTIONAL| J.P.Perdew, K.Burke, M.Ernzerhof, Phys. Rev. Letter, vol. 77, n 18,
 FUNCTIONAL|  pp. 3865-3868, (1996)sx=0.750sc=1.000{spin unpolarized}           


 QS| Method:                                                                GAPW
 QS| Density plane wave grid type                        NON-SPHERICAL FULLSPACE
 QS| Number of grid levels:                                                    5
 QS| Density cutoff [a.u.]:                                               1000.0
 QS| Multi grid cutoff [a.u.]: 1) grid level                              1000.0
 QS|                           2) grid level                               333.3
 QS|                           3) grid level                               111.1
 QS|                           4) grid level                                37.0
 QS|                           5) grid level                                12.3
 QS| Grid level progression factor:                                          3.0
 QS| Relative density cutoff [a.u.]:                                        40.0
 QS| Interaction thresholds: eps_pgf_orb:                                1.0E-30
 QS|                         eps_filter_matrix:                          0.0E+00
 QS|                         eps_core_charge:                            1.0E-17
 QS|                         eps_rho_gspace:                             1.0E-15
 QS|                         eps_rho_rspace:                             1.0E-15
 QS|                         eps_gvg_rspace:                             3.2E-08
 QS|                         eps_ppl:                                    1.0E-02
 QS|                         eps_ppnl:                                   3.2E-10
 QS| GAPW|      One center basis from orbital basis primitives
 QS| GAPW|                   eps_fit:                                    1.0E-04
 QS| GAPW|                   eps_iso:                                    1.0E-12
 QS| GAPW|                   eps_svd:                                    1.0E-08
 QS| GAPW|                   eps_cpc:                                    1.0E-15
 QS| GAPW|   atom-r-grid: quadrature:                                     GC_LOG
 QS| GAPW|      atom-s-grid:  max l :                                          6
 QS| GAPW|      max_l_rho0 :                                                   2


 ATOMIC KIND INFORMATION

  1. Atomic kind: H                                     Number of atoms:       2

     Orbital Basis Set                                                  TZP-ZORA

       Number of orbital shell sets:                                           6
       Number of orbital shells:                                               6
       Number of primitive Cartesian functions:                                8
       Number of Cartesian basis functions:                                   15
       Number of spherical basis functions:                                   14
       Norm type:                                                              2

       Normalised Cartesian orbitals:

                        Set   Shell   Orbital            Exponent    Coefficient

                          1       1    1s               34.877584       0.254499
                                                         5.233973       0.449285
                                                         1.185033       0.695456

                          2       1    1s                0.328339       0.309138

                          3       1    1s                0.110319       0.136426

                          4       1    1px               0.718844       0.943482
                          4       1    1py               0.718844       0.943482
                          4       1    1pz               0.718844       0.943482

                          5       1    1px               0.350000       0.383729
                          5       1    1py               0.350000       0.383729
                          5       1    1pz               0.350000       0.383729

                          6       1    1dx2              1.075060       1.868171
                          6       1    1dxy              1.075060       3.235768
                          6       1    1dxz              1.075060       3.235768
                          6       1    1dy2              1.075060       1.868171
                          6       1    1dyz              1.075060       3.235768
                          6       1    1dz2              1.075060       1.868171

       Atomic covalent radius [Angstrom]:                                  0.320

       Atomic van der Waals radius [Angstrom]:                             1.090

     The atoms of this atomic kind are PAW atoms (GAPW):
       Hard Gaussian function radius:                                      1.200
       Rho0 radius:                                                        1.200
       Maximum GTO radius used for PAW projector construction:            24.566

     GAPW Soft Basis Set                                           TZP-ZORA_soft

       Number of orbital shell sets:                                           6
       Number of orbital shells:                                               6
       Number of primitive Cartesian functions:                                7
       Number of Cartesian basis functions:                                   15
       Number of spherical basis functions:                                   14
       Norm type:                                                              2

       Normalised Cartesian orbitals:

                        Set   Shell   Orbital            Exponent    Coefficient

                          1       1    1s                5.233973       0.449285
                                                         1.185033       0.695456

                          2       1    1s                0.328339       0.309138

                          3       1    1s                0.110319       0.136426

                          4       1    1px               0.718844       0.943482
                          4       1    1py               0.718844       0.943482
                          4       1    1pz               0.718844       0.943482

                          5       1    1px               0.350000       0.383729
                          5       1    1py               0.350000       0.383729
                          5       1    1pz               0.350000       0.383729

                          6       1    1dx2              1.075060       1.868171
                          6       1    1dxy              1.075060       3.235768
                          6       1    1dxz              1.075060       3.235768
                          6       1    1dy2              1.075060       1.868171
                          6       1    1dyz              1.075060       3.235768
                          6       1    1dz2              1.075060       1.868171

     AE Potential information for                                            ALL

       Description:                                       All-electron potential
                                          Krack, Parrinello, PCCP 2, 2105 (2000)

       Gaussian exponent of the core charge distribution:              12.500000
       Electronic configuration (s p d ...):                           1   0   0

  2. Atomic kind: O                                     Number of atoms:       1

     Orbital Basis Set                                                  TZP-ZORA

       Number of orbital shell sets:                                          11
       Number of orbital shells:                                              11
       Number of primitive Cartesian functions:                               19
       Number of Cartesian basis functions:                                   36
       Number of spherical basis functions:                                   31
       Norm type:                                                              2

       Normalised Cartesian orbitals:

                        Set   Shell   Orbital            Exponent    Coefficient

                          1       1    1s            12870.845084       1.670134
                                                      1952.247772       2.965847
                                                       454.029695       4.900265
                                                       130.283728       7.253134
                                                        42.792733       8.736813

                          2       1    1s               15.446290       3.273046
                                                         5.877661       1.213404

                          3       1    1s                1.534264       0.982506

                          4       1    1s                0.816007       0.611900

                          5       1    1s                0.260111       0.259585

                          6       1    1px              63.352470       3.122975
                                                        14.669976       3.412732
                                                         4.466319       3.006132
                                                         1.531280       1.705805
                          6       1    1py              63.352470       3.122975
                                                        14.669976       3.412732
                                                         4.466319       3.006132
                                                         1.531280       1.705805
                          6       1    1pz              63.352470       3.122975
                                                        14.669976       3.412732
                                                         4.466319       3.006132
                                                         1.531280       1.705805

                          7       1    1px               0.544005       0.665954
                          7       1    1py               0.544005       0.665954
                          7       1    1pz               0.544005       0.665954

                          8       1    1px               0.179985       0.167103
                          8       1    1py               0.179985       0.167103
                          8       1    1pz               0.179985       0.167103

                          9       1    1dx2              2.390160       7.562348
                          9       1    1dxy              2.390160      13.098371
                          9       1    1dxz              2.390160      13.098371
                          9       1    1dy2              2.390160       7.562348
                          9       1    1dyz              2.390160      13.098371
                          9       1    1dz2              2.390160       7.562348

                         10       1    1dx2              0.681833       0.842066
                         10       1    1dxy              0.681833       1.458501
                         10       1    1dxz              0.681833       1.458501
                         10       1    1dy2              0.681833       0.842066
                         10       1    1dyz              0.681833       1.458501
                         10       1    1dz2              0.681833       0.842066

                         11       1    1fx3              1.510948       3.726197
                         11       1    1fx2y             1.510948       8.332031
                         11       1    1fx2z             1.510948       8.332031
                         11       1    1fxy2             1.510948       8.332031
                         11       1    1fxyz             1.510948      14.431501
                         11       1    1fxz2             1.510948       8.332031
                         11       1    1fy3              1.510948       3.726197
                         11       1    1fy2z             1.510948       8.332031
                         11       1    1fyz2             1.510948       8.332031
                         11       1    1fz3              1.510948       3.726197

       Atomic covalent radius [Angstrom]:                                  0.730

       Atomic van der Waals radius [Angstrom]:                             1.520

     The atoms of this atomic kind are PAW atoms (GAPW):
       Hard Gaussian function radius:                                      1.512
       Rho0 radius:                                                        1.512
       Maximum GTO radius used for PAW projector construction:            24.566

     GAPW Soft Basis Set                                           TZP-ZORA_soft

       Number of orbital shell sets:                                          11
       Number of orbital shells:                                              11
       Number of primitive Cartesian functions:                                9
       Number of Cartesian basis functions:                                   36
       Number of spherical basis functions:                                   31
       Norm type:                                                              2

       Normalised Cartesian orbitals:

                        Set   Shell   Orbital            Exponent    Coefficient

                          1       1    1s         

                          2       1    1s         

                          3       1    1s                1.534264       0.982506

                          4       1    1s                0.816007       0.611900

                          5       1    1s                0.260111       0.259585

                          6       1    1px               1.531280       1.705805
                          6       1    1py               1.531280       1.705805
                          6       1    1pz               1.531280       1.705805

                          7       1    1px               0.544005       0.665954
                          7       1    1py               0.544005       0.665954
                          7       1    1pz               0.544005       0.665954

                          8       1    1px               0.179985       0.167103
                          8       1    1py               0.179985       0.167103
                          8       1    1pz               0.179985       0.167103

                          9       1    1dx2              2.390160       7.562348
                          9       1    1dxy              2.390160      13.098371
                          9       1    1dxz              2.390160      13.098371
                          9       1    1dy2              2.390160       7.562348
                          9       1    1dyz              2.390160      13.098371
                          9       1    1dz2              2.390160       7.562348

                         10       1    1dx2              0.681833       0.842066
                         10       1    1dxy              0.681833       1.458501
                         10       1    1dxz              0.681833       1.458501
                         10       1    1dy2              0.681833       0.842066
                         10       1    1dyz              0.681833       1.458501
                         10       1    1dz2              0.681833       0.842066

                         11       1    1fx3              1.510948       3.726197
                         11       1    1fx2y             1.510948       8.332031
                         11       1    1fx2z             1.510948       8.332031
                         11       1    1fxy2             1.510948       8.332031
                         11       1    1fxyz             1.510948      14.431501
                         11       1    1fxz2             1.510948       8.332031
                         11       1    1fy3              1.510948       3.726197
                         11       1    1fy2z             1.510948       8.332031
                         11       1    1fyz2             1.510948       8.332031
                         11       1    1fz3              1.510948       3.726197

     AE Potential information for                                            ALL

       Description:                                       All-electron potential
                                          Krack, Parrinello, PCCP 2, 2105 (2000)

       Gaussian exponent of the core charge distribution:               8.154466
       Electronic configuration (s p d ...):                           4   4   0


 MOLECULE KIND INFORMATION


 All atoms are their own molecule, skipping detailed information


 TOTAL NUMBERS AND MAXIMUM NUMBERS

  Total number of            - Atomic kinds:                                   2
                             - Atoms:                                          3
                             - Shell sets:                                    23
                             - Shells:                                        23
                             - Primitive Cartesian functions:                 35
                             - Cartesian basis functions:                     66
                             - Spherical basis functions:                     59

  Maximum angular momentum of the orbital basis functions:                     3


 MODULE QUICKSTEP: ATOMIC COORDINATES IN ANGSTROM

   Atom Kind Element         X             Y             Z       Z(eff)     Mass
      1    1 H     1     10.765254     10.000000     10.298513   1.0000   1.0079
      2    1 H     1      9.234746     10.000000     10.298513   1.0000   1.0079
      3    2 O     8     10.000000     10.000000      9.701487   8.0000  15.9994



 SCF PARAMETERS         Density guess:                                      CORE
                        --------------------------------------------------------
                        max_scf:                                              20
                        max_scf_history:                                       0
                        max_diis:                                              4
                        --------------------------------------------------------
                        eps_scf:                                        1.00E-07
                        eps_scf_history:                                0.00E+00
                        eps_diis:                                       1.00E-01
                        eps_eigval:                                     1.00E-05
                        --------------------------------------------------------
                        level_shift [a.u.]:                             0.000000
                        --------------------------------------------------------
                        Outer loop SCF in use 
                        No variables optimised in outer loop
                        eps_scf                                         1.00E-07
                        max_scf                                               50
                        No outer loop optimization
                        step_size                                       5.00E-01

 PW_GRID| Information for grid number                                          1
 PW_GRID| Grid distributed over                                   128 processors
 PW_GRID| Real space group dimensions                                   128    1
 PW_GRID| the grid is blocked:                                                NO
 PW_GRID| Cutoff [a.u.]                                                   2000.0
 PW_GRID| spherical cutoff:                                                   NO
 PW_GRID|   Bounds   1           -384     383                Points:         768
 PW_GRID|   Bounds   2           -384     383                Points:         768
 PW_GRID|   Bounds   3           -384     383                Points:         768
 PW_GRID| Volume element (a.u.^3)  0.1192E-03     Volume (a.u.^3)     53986.6767
 PW_GRID| Grid span                                                    FULLSPACE
 PW_GRID|   Distribution                         Average         Max         Min
 PW_GRID|   G-Vectors                          3538944.0     3538944     3538944
 PW_GRID|   G-Rays                                4608.0        4608        4608
 PW_GRID|   Real Space Points                  3538944.0     3538944     3538944

 PW_GRID| Information for grid number                                          2
 PW_GRID| Number of the reference grid                                         1
 PW_GRID| Grid distributed over                                   128 processors
 PW_GRID| Real space group dimensions                                   128    1
 PW_GRID| the grid is blocked:                                                NO
 PW_GRID| Cutoff [a.u.]                                                   1000.0
 PW_GRID| spherical cutoff:                                                   NO
 PW_GRID|   Bounds   1           -270     269                Points:         540
 PW_GRID|   Bounds   2           -270     269                Points:         540
 PW_GRID|   Bounds   3           -270     269                Points:         540
 PW_GRID| Volume element (a.u.^3)  0.3429E-03     Volume (a.u.^3)     53986.6767
 PW_GRID| Grid span                                                    FULLSPACE
 PW_GRID|   Distribution                         Average         Max         Min
 PW_GRID|   G-Vectors                          1230187.5     1230660     1229580
 PW_GRID|   G-Rays                                2278.1        2279        2277
 PW_GRID|   Real Space Points                  1230187.5     1458000     1166400

 PW_GRID| Information for grid number                                          3
 PW_GRID| Number of the reference grid                                         2
 PW_GRID| Grid distributed over                                   128 processors
 PW_GRID| Real space group dimensions                                   128    1
 PW_GRID| the grid is blocked:                                                NO
 PW_GRID| Cutoff [a.u.]                                                    333.3
 PW_GRID| spherical cutoff:                                                   NO
 PW_GRID|   Bounds   1           -160     159                Points:         320
 PW_GRID|   Bounds   2           -160     159                Points:         320
 PW_GRID|   Bounds   3           -160     159                Points:         320
 PW_GRID| Volume element (a.u.^3)  0.1648E-02     Volume (a.u.^3)     53986.6767
 PW_GRID| Grid span                                                    FULLSPACE
 PW_GRID|   Distribution                         Average         Max         Min
 PW_GRID|   G-Vectors                           256000.0      256640      255680
 PW_GRID|   G-Rays                                 800.0         802         799
 PW_GRID|   Real Space Points                   256000.0      307200      204800

 PW_GRID| Information for grid number                                          4
 PW_GRID| Number of the reference grid                                         2
 PW_GRID| Grid distributed over                                   128 processors
 PW_GRID| Real space group dimensions                                   128    1
 PW_GRID| the grid is blocked:                                                NO
 PW_GRID| Cutoff [a.u.]                                                    111.1
 PW_GRID| spherical cutoff:                                                   NO
 PW_GRID|   Bounds   1            -90      89                Points:         180
 PW_GRID|   Bounds   2            -90      89                Points:         180
 PW_GRID|   Bounds   3            -90      89                Points:         180
 PW_GRID| Volume element (a.u.^3)  0.9257E-02     Volume (a.u.^3)     53986.6767
 PW_GRID| Grid span                                                    FULLSPACE
 PW_GRID|   Distribution                         Average         Max         Min
 PW_GRID|   G-Vectors                            45562.5       45720       45360
 PW_GRID|   G-Rays                                 253.1         254         252
 PW_GRID|   Real Space Points                    45562.5       64800       32400

 PW_GRID| Information for grid number                                          5
 PW_GRID| Number of the reference grid                                         2
 PW_GRID| Grid distributed over                                   128 processors
 PW_GRID| Real space group dimensions                                     8   16
 PW_GRID| the grid is blocked:                                                NO
 PW_GRID| Cutoff [a.u.]                                                     37.0
 PW_GRID| spherical cutoff:                                                   NO
 PW_GRID|   Bounds   1            -54      53                Points:         108
 PW_GRID|   Bounds   2            -54      53                Points:         108
 PW_GRID|   Bounds   3            -54      53                Points:         108
 PW_GRID| Volume element (a.u.^3)  0.4286E-01     Volume (a.u.^3)     53986.6767
 PW_GRID| Grid span                                                    FULLSPACE
 PW_GRID|   Distribution                         Average         Max         Min
 PW_GRID|   G-Vectors                             9841.5        9936        9720
 PW_GRID|   G-Rays                                  91.1          92          90
 PW_GRID|   Real Space Points                     9841.5       10584        8424

 PW_GRID| Information for grid number                                          6
 PW_GRID| Number of the reference grid                                         2
 PW_GRID| Grid distributed over                                   128 processors
 PW_GRID| Real space group dimensions                                     8   16
 PW_GRID| the grid is blocked:                                                NO
 PW_GRID| Cutoff [a.u.]                                                     12.3
 PW_GRID| spherical cutoff:                                                   NO
 PW_GRID|   Bounds   1            -30      29                Points:          60
 PW_GRID|   Bounds   2            -30      29                Points:          60
 PW_GRID|   Bounds   3            -30      29                Points:          60
 PW_GRID| Volume element (a.u.^3)  0.2499         Volume (a.u.^3)     53986.6767
 PW_GRID| Grid span                                                    FULLSPACE
 PW_GRID|   Distribution                         Average         Max         Min
 PW_GRID|   G-Vectors                             1687.5        1800        1620
 PW_GRID|   G-Rays                                  28.1          30          27
 PW_GRID|   Real Space Points                     1687.5        1920        1260

 POISSON| Solver                                          Martyna-Tuckerman (MT)
 POISSON| MT| Alpha                                                        7.000
 POISSON| MT| Relative cutoff                                                2.0
 POISSON| Periodicity                                                       NONE

 RS_GRID| Information for grid number                                          2
 RS_GRID|   Bounds   1           -270     269                Points:         540
 RS_GRID|   Bounds   2           -270     269                Points:         540
 RS_GRID|   Bounds   3           -270     269                Points:         540
 RS_GRID| Real space distribution over                                  4 groups
 RS_GRID| Real space distribution along direction                              1
 RS_GRID| Border size                                                         33
 RS_GRID| Real space distribution over                                  4 groups
 RS_GRID| Real space distribution along direction                              2
 RS_GRID| Border size                                                         33
 RS_GRID| Real space distribution over                                  8 groups
 RS_GRID| Real space distribution along direction                              3
 RS_GRID| Border size                                                         33
 RS_GRID|   Distribution                         Average         Max         Min
 RS_GRID|   Planes                                 201.0         201         201
 RS_GRID|   Distribution                         Average         Max         Min
 RS_GRID|   Planes                                 201.0         201         201
 RS_GRID|   Distribution                         Average         Max         Min
 RS_GRID|   Planes                                 133.5         134         133

 RS_GRID| Information for grid number                                          3
 RS_GRID|   Bounds   1           -160     159                Points:         320
 RS_GRID|   Bounds   2           -160     159                Points:         320
 RS_GRID|   Bounds   3           -160     159                Points:         320
 RS_GRID| Real space distribution over                                  4 groups
 RS_GRID| Real space distribution along direction                              1
 RS_GRID| Border size                                                         35
 RS_GRID| Real space distribution over                                  4 groups
 RS_GRID| Real space distribution along direction                              2
 RS_GRID| Border size                                                         35
 RS_GRID| Real space distribution over                                  8 groups
 RS_GRID| Real space distribution along direction                              3
 RS_GRID| Border size                                                         35
 RS_GRID|   Distribution                         Average         Max         Min
 RS_GRID|   Planes                                 150.0         150         150
 RS_GRID|   Distribution                         Average         Max         Min
 RS_GRID|   Planes                                 150.0         150         150
 RS_GRID|   Distribution                         Average         Max         Min
 RS_GRID|   Planes                                 110.0         110         110

 RS_GRID| Information for grid number                                          4
 RS_GRID|   Bounds   1            -90      89                Points:         180
 RS_GRID|   Bounds   2            -90      89                Points:         180
 RS_GRID|   Bounds   3            -90      89                Points:         180
 RS_GRID| Real space fully replicated
 RS_GRID| Group size                                                           1

 RS_GRID| Information for grid number                                          5
 RS_GRID|   Bounds   1            -54      53                Points:         108
 RS_GRID|   Bounds   2            -54      53                Points:         108
 RS_GRID|   Bounds   3            -54      53                Points:         108
 RS_GRID| Real space fully replicated
 RS_GRID| Group size                                                           1

 RS_GRID| Information for grid number                                          6
 RS_GRID|   Bounds   1            -30      29                Points:          60
 RS_GRID|   Bounds   2            -30      29                Points:          60
 RS_GRID|   Bounds   3            -30      29                Points:          60
 RS_GRID| Real space fully replicated
 RS_GRID| Group size                                                           1

  HFX_INFO| Replica ID:                                                        1
  HFX_INFO| FRACTION:                                               0.2500000000
  HFX_INFO| Interaction Potential:                                       COULOMB
  HFX_INFO| EPS_SCHWARZ:                                                 1.0E-10
  HFX_INFO| EPS_SCHWARZ_FORCES                                           1.0E-06
  HFX_INFO| EPS_STORAGE_SCALING:                                         1.0E+00
  HFX_INFO| NBINS:                                                            64
  HFX_INFO| BLOCK_SIZE:                                                        1
  HFX_INFO| Number of periodic shells considered:                           NONE
  HFX_INFO| Number of periodic cells considered:                            NONE


 Number of electrons:                                                         10
 Number of occupied orbitals:                                                  5
 Number of molecular orbitals:                                                 5

 Number of orbital functions:                                                 59
 Number of independent orbital functions:                                     59

 Extrapolation method: initial_guess


 SCF WAVEFUNCTION OPTIMIZATION

  ----------------------------------- OT ---------------------------------------
  Minimizer      : DIIS                : direct inversion
                                         in the iterative subspace
                                         using   7 DIIS vectors
                                         safer DIIS on
  Preconditioner : FULL_ALL            : diagonalization, state selective
  Precond_solver : DEFAULT
  stepsize       :    0.15000000                  energy_gap     :    0.08000000
  eps_taylor     :   0.10000E-15                  max_taylor     :             4
  ----------------------------------- OT ---------------------------------------

  Step     Update method      Time    Convergence         Total energy    Change
  ------------------------------------------------------------------------------

  HFX_MEM_INFO| Est. max. program size before HFX [MiB]:                    1411
  HFX_MEM_INFO| Number of cart. primitive ERI's calculated:             16637027
  HFX_MEM_INFO| Number of sph. ERI's calculated:                         3628685
  HFX_MEM_INFO| Number of sph. ERI's stored in-core:                     3628685
  HFX_MEM_INFO| Number of sph. ERI's stored on disk:                           0
  HFX_MEM_INFO| Number of sph. ERI's calculated on the fly:                    0
  HFX_MEM_INFO| Total memory consumption ERI's RAM [MiB]:                     13
  HFX_MEM_INFO| Whereof max-vals [MiB]:                                        2
  HFX_MEM_INFO| Total compression factor ERI's RAM:                         2.27
  HFX_MEM_INFO| Total memory consumption ERI's disk [MiB]:                     0
  HFX_MEM_INFO| Total compression factor ERI's disk:                        0.00
  HFX_MEM_INFO| Size of density/Fock matrix [MiB]:                             0
  HFX_MEM_INFO| Size of buffers [MiB]:                                         0
  HFX_MEM_INFO| Est. max. program size after HFX  [MiB]:                    1394

     1 OT DIIS     0.15E+00  117.2     0.54397162       -64.6267020458 -6.46E+01
     2 OT DIIS     0.15E+00   85.6     0.23563906       -75.5666036067 -1.09E+01
     3 OT DIIS     0.15E+00   82.3     0.24949752       -75.9163913811 -3.50E-01
     4 OT DIIS     0.15E+00   74.7     0.13107118       -76.2449247311 -3.29E-01
     5 OT DIIS     0.15E+00   83.2     0.02855941       -76.3643769089 -1.19E-01
     6 OT DIIS     0.15E+00   79.6     0.01562206       -76.3734178305 -9.04E-03
     7 OT DIIS     0.15E+00   79.6     0.00428677       -76.3757441354 -2.33E-03
     8 OT DIIS     0.15E+00   75.8     0.00162125       -76.3760178698 -2.74E-04
     9 OT DIIS     0.15E+00   79.1     0.00094921       -76.3760997748 -8.19E-05
    10 OT DIIS     0.15E+00   79.6     0.00071333       -76.3761377773 -3.80E-05
    11 OT DIIS     0.15E+00   80.9     0.00051916       -76.3761688313 -3.11E-05
    12 OT DIIS     0.15E+00   77.3     0.00036130       -76.3761857657 -1.69E-05
    13 OT DIIS     0.15E+00   78.8     0.00025308       -76.3761943112 -8.55E-06
    14 OT DIIS     0.15E+00   76.2     0.00019852       -76.3761967349 -2.42E-06
    15 OT DIIS     0.15E+00   80.9     0.00012621       -76.3761977719 -1.04E-06
    16 OT DIIS     0.15E+00   77.5     0.00005122       -76.3761980287 -2.57E-07
    17 OT DIIS     0.15E+00   81.2     0.00003104       -76.3761980950 -6.63E-08
    18 OT DIIS     0.15E+00   79.2     0.00001466       -76.3761981177 -2.28E-08
    19 OT DIIS     0.15E+00   81.7     0.00000792       -76.3761981230 -5.21E-09
    20 OT DIIS     0.15E+00   85.9     0.00000532       -76.3761981241 -1.10E-09

  Leaving inner SCF loop after reaching    20 steps.


  Electronic density on regular grids:         -7.3981595165        2.6018404835
  Core density on regular grids:               10.0000000000       -0.0000000000
  Hard and soft densities (Lebedev):          -16.2571496116      -13.6553097864
  Total Rho_soft + Rho1_hard - Rho1_soft       -9.9999993417
  Total charge density (r-space):               0.0000006583
  Total Rho_soft + Rho0_soft (g-space):         0.0000006190

  Overlap energy of the core charge distribution:               0.00000007237233
  Self energy of the core charge distribution:                -75.73106814560732
  Core Hamiltonian energy:                                     -5.37381879005911
  Hartree energy:                                              18.98029868368432
  Exchange-correlation energy:                                 -2.80663649748290
  Hartree-Fock Exchange energy:                                -2.23076240417287

  GAPW| Exc from hard and soft atomic rho1:                    -4.20963588666440
  GAPW| local Eh = 1 center integrals:                         -5.00457515612451

  Total energy:                                               -76.37619812405445

  outer SCF iter =    1 RMS gradient =   0.53E-05 energy =        -76.3761981241

  ----------------------------------- OT ---------------------------------------
  Minimizer      : DIIS                : direct inversion
                                         in the iterative subspace
                                         using   7 DIIS vectors
                                         safer DIIS on
  Preconditioner : FULL_ALL            : diagonalization, state selective
  Precond_solver : DEFAULT
  stepsize       :    0.15000000                  energy_gap     :    0.08000000
  eps_taylor     :   0.10000E-15                  max_taylor     :             4
  ----------------------------------- OT ---------------------------------------

  Step     Update method      Time    Convergence         Total energy    Change
  ------------------------------------------------------------------------------
     1 OT DIIS     0.15E+00  200.9     0.00000224       -76.3761981245 -4.00E-10
     2 OT DIIS     0.15E+00   74.2     0.00000088       -76.3761981246 -1.46E-10
     3 OT DIIS     0.15E+00   71.4     0.00000018       -76.3761981246 -2.12E-11
     4 OT DIIS     0.15E+00   68.0     0.00000006       -76.3761981246  2.57E-12

  *** SCF run converged in     4 steps ***


  Electronic density on regular grids:         -7.3981606029        2.6018393971
  Core density on regular grids:               10.0000000000       -0.0000000000
  Hard and soft densities (Lebedev):          -16.2571687828      -13.6553300440
  Total Rho_soft + Rho1_hard - Rho1_soft       -9.9999993417
  Total charge density (r-space):               0.0000006583
  Total Rho_soft + Rho0_soft (g-space):         0.0000006190

  Overlap energy of the core charge distribution:               0.00000007237233
  Self energy of the core charge distribution:                -75.73106814560732
  Core Hamiltonian energy:                                     -5.37380223552703
  Hartree energy:                                              18.98028579813274
  Exchange-correlation energy:                                 -2.80663849164741
  Hartree-Fock Exchange energy:                                -2.23076300495522

  GAPW| Exc from hard and soft atomic rho1:                    -4.20963603920246
  GAPW| local Eh = 1 center integrals:                         -5.00457607818479

  Total energy:                                               -76.37619812461914

  outer SCF iter =    2 RMS gradient =   0.63E-07 energy =        -76.3761981246
  outer SCF loop converged in   2 iterations or   24 steps


 !-----------------------------------------------------------------------------!
                     Mulliken Population Analysis

 #  Atom  Element  Kind  Atomic population                           Net charge
       1     H        1          0.763431                              0.236569
       2     H        1          0.763431                              0.236569
       3     O        2          8.473138                             -0.473138
 # Total charge                             10.000000                  0.000000

 !-----------------------------------------------------------------------------!

 !-----------------------------------------------------------------------------!
                           Hirshfeld Charges

  #Atom  Element  Kind  Ref Charge     Population                    Net charge
      1       H      1       1.000          0.406                         0.594
      2       H      1       1.000          0.406                         0.594
      3       O      2       8.000          9.186                        -1.186

  Total Charge                                                            0.001
 !-----------------------------------------------------------------------------!

 *******************************************************************************
 **                                                                           **
 **         ######## #######   #######   ######## #######  ########           **
 **            ##    ##     ## ##     ## ##       ##   ##     ##              **
 **            ##    ##     ## ##     ## ######   #######     ##              **
 **            ##    ##     ## ##     ## ##       ##          ##              **
 **            ##    #######   #######   ##       ##          ##              **
 **                                                                           **
 *******************************************************************************
 KERNEL|                                                                    FULL
 FUNCTIONAL| PBE:
 FUNCTIONAL| J.P.Perdew, K.Burke, M.Ernzerhof, Phys. Rev. Letter, vol. 77, n 18,
 FUNCTIONAL|  pp. 3865-3868, (1996)sx=0.750sc=1.000{spin unpolarized}           
 KERNEL|                                                          Exact Exchange
 KERNEL| Spin symmetry of excitations                                    Triplet
 TDDFPT| Number of states calculated                                          10
 TDDFPT| Number of Davidson iterations                                        20
 TDDFPT| Davidson iteration convergence                                0.100E-07
 TDDFPT| Max. number of Krylov space vectors                                  60
 TDDFPT| Molecular Orbitals:        Spin       AOs       Occ      Virt     Total
 TDDFPT|                               1        59         5        54        59

 *******************************************************************************
 **                                                                           **
 **                            ####### ####### #######                        **
 **                        #   ##      ##   ## ##                             **
 **                       ###  ######  ##   ## ##                             **
 **                        #       ##  ##   ## ##                             **
 **                            ######  ####### #######                        **
 **                 Based on the xas module from Augustin Bussy               **
 *******************************************************************************
 
 -------------------------------------------------------------------------------
 -                      TDDFPT TRIPLET ENERGIES                                 -
 -------------------------------------------------------------------------------
 
 -------------------------------------------------------------------------------
 -                            TDDFPT Initial Guess                             -
 -------------------------------------------------------------------------------
          State         Occupied      ->      Virtual          Excitation
          number         orbital              orbital          energy (eV)
 -------------------------------------------------------------------------------
             1                5                    6             10.06754
             2                5                    7             11.83957
             3                4                    6             12.16091
             4                4                    7             13.93294
             5                3                    6             15.87729
             6                3                    7             17.64931
             7                5                    8             18.74594
             8                5                    9             19.94769
             9                5                   10             20.09393
            10                4                    8             20.83931

      Number of active states:                                        270
 -------------------------------------------------------------------------------
 
 -------------------------------------------------------------------------------
 -                      TDDFPT WAVEFUNCTION OPTIMIZATION                       -
 -------------------------------------------------------------------------------

          Step            Time         Convergence           Conv. states
 -------------------------------------------------------------------------------

    State    Exc. energy (eV)      Convergence (eV)
        1       7.4318893            -2.6357E+00
        2       9.3932914            -2.4463E+00
        3       9.5798436            -2.5811E+00
        4      11.3114695            -2.6215E+00
        5      13.1396225            -2.7377E+00
        6      14.8275475            -2.8218E+00
        7      16.0293589            -2.7166E+00
        8      16.9588735            -2.9888E+00
        9      17.1937273            -2.9002E+00
       10      17.8359983            -3.0033E+00
 
             1           787.5          1.1037E-01                      0

    State    Exc. energy (eV)      Convergence (eV)
        1       7.3548922            -7.6997E-02
        2       9.2746829            -1.1861E-01
        3       9.4268843            -1.5296E-01
        4      11.1597819            -1.5169E-01
        5      12.9478389            -1.9178E-01
        6      14.4426431            -3.8490E-01
        7      15.9848295            -4.4529E-02
        8      16.8424036            -1.1647E-01
        9      17.1365678            -5.7159E-02
       10      17.7333784            -1.0262E-01
 
             2           767.0          1.4145E-02                      0

    State    Exc. energy (eV)      Convergence (eV)
        1       7.3547752            -1.1694E-04
        2       9.2745105            -1.7234E-04
        3       9.4256170            -1.2673E-03
        4      11.1591532            -6.2869E-04
        5      12.9464910            -1.3479E-03
        6      14.4286340            -1.4009E-02
        7      15.9844669            -3.6260E-04
        8      16.8340851            -8.3185E-03
        9      17.1359606            -6.0717E-04
       10      17.7317006            -1.6777E-03
 
             3           772.3          5.1482E-04                      0

    State    Exc. energy (eV)      Convergence (eV)
        1       7.3547750            -2.1625E-07
        2       9.2745099            -5.8981E-07
        3       9.4256032            -1.3817E-05
        4      11.1591521            -1.1451E-06
        5      12.9464844            -6.5454E-06
        6      14.4272413            -1.3928E-03
        7      15.9844643            -2.6033E-06
        8      16.8340656            -1.9431E-05
        9      17.1359418            -1.8819E-05
       10      17.2875289            -4.4417E-01
 
             4           794.9          1.6323E-02                      1

    State    Exc. energy (eV)      Convergence (eV)
        1       7.3547750            -3.5921E-10
        2       9.2745099            -8.1710E-10
        3       9.4256031            -8.2463E-08
        4      11.1591521            -5.8717E-09
        5      12.9464844            -4.2236E-08
        6      14.4271937            -4.7567E-05
        7      15.9844643            -9.9369E-09
        8      16.8340654            -1.8802E-07
        9      17.1359416            -1.9971E-07
       10      17.1750229            -1.1251E-01
 
             5           792.1          4.1345E-03                      8

    State    Exc. energy (eV)      Convergence (eV)
        1       7.3547750            -2.1752E-13
        2       9.2745099            -1.1797E-12
        3       9.4256031            -3.4555E-10
        4      11.1591521            -1.2758E-11
        5      12.9464844            -1.1041E-10
        6      14.4271931            -6.1396E-07
        7      15.9844643            -4.2319E-11
        8      16.8340654            -5.0339E-10
        9      17.1359416            -6.5394E-10
       10      17.1701003            -4.9227E-03
 
             6           721.6          1.8090E-04                      8
 ------------------------- Restart Davidson iterations -------------------------

    State    Exc. energy (eV)      Convergence (eV)
        1       7.3547750             9.0632E-15
        2       9.2745099             2.5679E-14
        3       9.4256031            -1.5105E-15
        4      11.1591521             4.5316E-15
        5      12.9464844             1.3595E-14
        6      14.4271931             3.0211E-15
        7      15.9844643             6.0421E-15
        8      16.8340654             5.7400E-14
        9      17.1359416            -9.0632E-15
       10      17.1701003             2.1147E-14
 
             7           716.0          2.1094E-15                     10
 
 -------------------------------------------------------------------------------
 -  TDDFPT run converged in 7 iteration(s) 
 -------------------------------------------------------------------------------

 R-TDDFPT states of multiplicity 3
 Transition dipoles calculated using length formulation

         State    Excitation        Transition dipole (a.u.)        Oscillator
         number   energy (eV)       x           y           z     strength (a.u.)
         ------------------------------------------------------------------------
 TDDFPT|      1       7.35478   0.0000E+00  0.0000E+00  0.0000E+00   0.00000E+00
 TDDFPT|      2       9.27451   0.0000E+00  0.0000E+00  0.0000E+00   0.00000E+00
 TDDFPT|      3       9.42560   0.0000E+00  0.0000E+00  0.0000E+00   0.00000E+00
 TDDFPT|      4      11.15915   0.0000E+00  0.0000E+00  0.0000E+00   0.00000E+00
 TDDFPT|      5      12.94648   0.0000E+00  0.0000E+00  0.0000E+00   0.00000E+00
 TDDFPT|      6      14.42719   0.0000E+00  0.0000E+00  0.0000E+00   0.00000E+00
 TDDFPT|      7      15.98446   0.0000E+00  0.0000E+00  0.0000E+00   0.00000E+00
 TDDFPT|      8      16.83407   0.0000E+00  0.0000E+00  0.0000E+00   0.00000E+00
 TDDFPT|      9      17.13594   0.0000E+00  0.0000E+00  0.0000E+00   0.00000E+00
 TDDFPT|     10      17.17010   0.0000E+00  0.0000E+00  0.0000E+00   0.00000E+00

 TDDFPT : CheckSum  =  0.158345E+01
 
 -------------------------------------------------------------------------------
 -                            Excitation analysis                              -
 -------------------------------------------------------------------------------
        State             Occupied              Virtual             Excitation
        number             orbital              orbital             amplitude
 -------------------------------------------------------------------------------
             1   7.35478 eV
                                 5                    6               0.995536
                                 5                   10               0.068329
             2   9.27451 eV
                                 5                    7               0.990588
                                 5                    8               0.101831
                                 5                   13               0.083402
             3   9.42560 eV
                                 4                    6              -0.991710
                                 4                   10              -0.073854
                                 3                    7               0.061539
             4  11.15915 eV
                                 4                    7              -0.963712
                                 3                    6               0.198691
                                 4                    8              -0.143126
                                 4                   13              -0.081272
             5  12.94648 eV
                                 3                    6              -0.969062
                                 4                    7              -0.210021
                                 3                   10              -0.104280
             6  14.42719 eV
                                 3                    7               0.967528
                                 3                    8               0.154161
                                 3                   13               0.112521
                                 5                   11               0.089395
                                 4                    6               0.076287
                                 4                   10              -0.069190
                                 4                    9               0.056432
                                 2                    6              -0.056186
             7  15.98446 eV
                                 5                    8               0.993304
                                 5                    7              -0.104773
             8  16.83407 eV
                                 5                    9              -0.924168
                                 5                   10               0.350340
                                 4                   11              -0.122074
                                 5                    6              -0.056457
             9  17.13594 eV
                                 5                   10               0.931363
                                 5                    9               0.355993
                                 5                    6              -0.053664
            10  17.17010 eV
                                 5                   11               0.958018
                                 4                    9               0.244118
                                 3                    7              -0.113255
                                 2                    6              -0.057940
 -------------------------------------------------------------------------------
 
 -------------------------------------------------------------------------------
 -                            Natural Orbital analysis                         -
 -------------------------------------------------------------------------------
   STATE NR.      1             7.35478 eV
     Particle-Hole state: 1   Spin:1     Eigenvalue: 0.99941   Sum Eigv: 0.99941
   STATE NR.      2             9.27451 eV
     Particle-Hole state: 1   Spin:1     Eigenvalue: 0.99925   Sum Eigv: 0.99925
   STATE NR.      3             9.42560 eV
     Particle-Hole state: 1   Spin:1     Eigenvalue: 0.99453   Sum Eigv: 0.99453
   STATE NR.      4            11.15915 eV
     Particle-Hole state: 1   Spin:1     Eigenvalue: 0.95674   Sum Eigv: 0.95674
     Particle-Hole state: 2   Spin:1     Eigenvalue: 0.04292   Sum Eigv: 0.99967
   STATE NR.      5            12.94648 eV
     Particle-Hole state: 1   Spin:1     Eigenvalue: 0.95269   Sum Eigv: 0.95269
     Particle-Hole state: 2   Spin:1     Eigenvalue: 0.04617   Sum Eigv: 0.99886
   STATE NR.      6            14.42719 eV
     Particle-Hole state: 1   Spin:1     Eigenvalue: 0.97353   Sum Eigv: 0.97353
     Particle-Hole state: 2   Spin:1     Eigenvalue: 0.01474   Sum Eigv: 0.98826
   STATE NR.      7            15.98446 eV
     Particle-Hole state: 1   Spin:1     Eigenvalue: 0.99896   Sum Eigv: 0.99896
   STATE NR.      8            16.83407 eV
     Particle-Hole state: 1   Spin:1     Eigenvalue: 0.98484   Sum Eigv: 0.98484
   STATE NR.      9            17.13594 eV
     Particle-Hole state: 1   Spin:1     Eigenvalue: 0.99911   Sum Eigv: 0.99911
   STATE NR.     10            17.17010 eV
     Particle-Hole state: 1   Spin:1     Eigenvalue: 0.91932   Sum Eigv: 0.91932
     Particle-Hole state: 2   Spin:1     Eigenvalue: 0.06295   Sum Eigv: 0.98227
 -------------------------------------------------------------------------------
 
                       triplet excitations finished                             
                                                                                
 -------------------------------------------------------------------------------
 -                      TDDFPT SINGLET ENERGIES                                -
 -------------------------------------------------------------------------------
 
 -------------------------------------------------------------------------------
 -                            TDDFPT Initial Guess                             -
 -------------------------------------------------------------------------------
          State         Occupied      ->      Virtual          Excitation
          number         orbital              orbital          energy (eV)
 -------------------------------------------------------------------------------
             1                5                    6             10.06754
             2                5                    7             11.83957
             3                4                    6             12.16091
             4                4                    7             13.93294
             5                3                    6             15.87729
             6                3                    7             17.64931
             7                5                    8             18.74594
             8                5                    9             19.94769
             9                5                   10             20.09393
            10                4                    8             20.83931

      Number of active states:                                        270
 -------------------------------------------------------------------------------
 
 -------------------------------------------------------------------------------
 -                      TDDFPT WAVEFUNCTION OPTIMIZATION                       -
 -------------------------------------------------------------------------------

          Step            Time         Convergence           Conv. states
 -------------------------------------------------------------------------------

    State    Exc. energy (eV)      Convergence (eV)
        1       8.0683770            -1.9992E+00
        2       9.7374534            -2.1021E+00
        3      10.5176044            -1.6433E+00
        4      12.2368167            -1.6961E+00
        5      14.0801479            -1.7971E+00
        6      16.2769891            -1.3723E+00
        7      17.3652303            -1.3807E+00
        8      17.8003466            -2.1473E+00
        9      18.1623774            -1.9316E+00
       10      19.7676912            -1.0716E+00
 
             1           750.7          7.8913E-02                      0

    State    Exc. energy (eV)      Convergence (eV)
        1       8.0405742            -2.7803E-02
        2       9.6922740            -4.5179E-02
        3      10.3583376            -1.5927E-01
        4      12.1226001            -1.1422E-01
        5      14.0400516            -4.0096E-02
        6      16.2361935            -4.0796E-02
        7      16.2582454            -1.1070E+00
        8      17.3319343            -4.6841E-01
        9      17.9653383            -1.9704E-01
       10      19.1395640            -6.2813E-01
 
             2           757.1          4.0681E-02                      0

    State    Exc. energy (eV)      Convergence (eV)
        1       8.0404811            -9.3073E-05
        2       9.6921598            -1.1427E-04
        3      10.3536460            -4.6916E-03
        4      12.1207682            -1.8319E-03
        5      14.0396162            -4.3538E-04
        6      16.2144961            -2.1697E-02
        7      16.2581845            -6.0933E-05
        8      17.3314765            -4.5783E-04
        9      17.9622400            -3.0983E-03
       10      19.1329214            -6.6426E-03
 
             3           765.9          7.9737E-04                      0

    State    Exc. energy (eV)      Convergence (eV)
        1       8.0404809            -1.6353E-07
        2       9.6921596            -1.2480E-07
        3      10.3535881            -5.7834E-05
        4      12.1207657            -2.4810E-06
        5      14.0396147            -1.4747E-06
        6      16.2136594            -8.3671E-04
        7      16.2581840            -5.4776E-07
        8      17.3314657            -1.0773E-05
        9      17.9621303            -1.0970E-04
       10      19.1328104            -1.1097E-04
 
             4           783.2          3.0749E-05                      2

    State    Exc. energy (eV)      Convergence (eV)
        1       8.0404809            -1.7018E-10
        2       9.6921596            -2.1233E-10
        3      10.3535878            -3.6507E-07
        4      12.1207657            -2.5411E-09
        5      14.0396147            -4.6039E-09
        6      16.2135958            -6.3598E-05
        7      16.2581840            -8.7174E-10
        8      17.3314657            -3.3360E-08
        9      17.9621292            -1.0690E-06
       10      19.1328084            -2.0349E-06
 
             5           776.0          2.3372E-06                      6

    State    Exc. energy (eV)      Convergence (eV)
        1       8.0404809            -6.0421E-14
        2       9.6921596            -1.6314E-13
        3      10.3535878            -3.8102E-09
        4      12.1207657            -3.6328E-12
        5      14.0396147            -8.6252E-12
        6      16.2135931            -2.6944E-06
        7      16.2581840            -2.2507E-12
        8      17.3314657            -4.3268E-11
        9      17.9621292            -6.0408E-10
       10      19.1328084            -1.2960E-08
 
             6           692.2          9.9018E-08                      9
 ------------------------- Restart Davidson iterations -------------------------

    State    Exc. energy (eV)      Convergence (eV)
        1       8.0404809            -1.3595E-14
        2       9.6921596            -6.0421E-15
        3      10.3535878             6.0421E-15
        4      12.1207657            -7.5527E-15
        5      14.0396147             9.0632E-15
        6      16.2135931             1.5105E-14
        7      16.2581840            -3.3232E-14
        8      17.3314657            -2.7190E-14
        9      17.9621292            -2.4169E-14
       10      19.1328084             1.5105E-14
 
             7           684.2          1.2212E-15                     10
 
 -------------------------------------------------------------------------------
 -  TDDFPT run converged in 7 iteration(s) 
 -------------------------------------------------------------------------------

 R-TDDFPT states of multiplicity 1
 Transition dipoles calculated using length formulation

         State    Excitation        Transition dipole (a.u.)        Oscillator
         number   energy (eV)       x           y           z     strength (a.u.)
         ------------------------------------------------------------------------
 TDDFPT|      1       8.04048  -3.0913E-09 -4.7578E-01 -1.0332E-09   4.45917E-02
 TDDFPT|      2       9.69216  -2.6407E-10 -2.6983E-10 -1.3976E-09   4.97682E-19
 TDDFPT|      3      10.35359  -2.8592E-09  1.4366E-09 -6.6642E-01   1.12653E-01
 TDDFPT|      4      12.12077   4.3319E-01 -2.6786E-09 -1.6580E-09   5.57237E-02
 TDDFPT|      5      14.03961  -8.6210E-01  4.3963E-09  3.3851E-09   2.55643E-01
 TDDFPT|      6      16.21359   2.2449E-09 -1.0044E-09  5.0077E-01   9.96113E-02
 TDDFPT|      7      16.25818   8.1730E-11  1.1749E-09 -1.8783E-08   1.41082E-16
 TDDFPT|      8      17.33147   5.7440E-10  1.5093E-01  7.8403E-10   9.67236E-03
 TDDFPT|      9      17.96213  -2.4105E-09 -4.2286E-01 -1.2138E-09   7.86864E-02
 TDDFPT|     10      19.13281   5.3413E-01 -2.3222E-09 -3.4569E-09   1.33730E-01

 TDDFPT : CheckSum  =  0.169450E+01
 
 -------------------------------------------------------------------------------
 -                            Excitation analysis                              -
 -------------------------------------------------------------------------------
        State             Occupied              Virtual             Excitation
        number             orbital              orbital             amplitude
 -------------------------------------------------------------------------------
             1   8.04048 eV
                                 5                    6              -0.998896
             2   9.69216 eV
                                 5                    7              -0.996172
                                 5                    8              -0.066759
                                 5                   13              -0.053472
             3  10.35359 eV
                                 4                    6               0.992912
                                 3                    7               0.080629
                                 5                   11               0.059794
             4  12.12077 eV
                                 4                    7              -0.993565
                                 3                    6              -0.079304
             5  14.03961 eV
                                 3                    6              -0.993118
                                 4                    7               0.077005
                                 4                    8              -0.072906
[...]
 flops    31 x    32 x    14               222208       0.0%    100.0%      0.0%
 flops    14 x    32 x    31               222208       0.0%    100.0%      0.0%
 flops    31 x    32 x    31               246016       0.0%    100.0%      0.0%
 flops    45 x     5 x     5               274500       0.0%    100.0%      0.0%
 flops    45 x     5 x    14               730800       0.0%    100.0%      0.0%
 flops    45 x     5 x    31               809100       0.0%    100.0%      0.0%
 flops    14 x    31 x     5              1323700       0.0%    100.0%      0.0%
 flops    31 x    14 x     5              1323700       0.0%    100.0%      0.0%
 flops    14 x    14 x     5              1793400       0.0%    100.0%      0.0%
 flops    31 x    31 x     5              2931050       0.0%    100.0%      0.0%
 flops     5 x     5 x    14              2937200       0.0%    100.0%      0.0%
 flops     5 x     5 x    31              3251900       0.0%    100.0%      0.0%
 flops    14 x     5 x    14              8816080       0.0%    100.0%      0.0%
 flops    31 x     5 x    14              9235520       0.0%    100.0%      0.0%
 flops    14 x     5 x    31              9487240       0.0%    100.0%      0.0%
 flops    31 x     5 x    31             10830470       0.0%    100.0%      0.0%
 flops inhomo. stacks                           0       0.0%      0.0%      0.0%
 flops total                        55.378352E+06       0.0%    100.0%      0.0%
 flops max/rank                     30.325640E+06       0.0%    100.0%      0.0%
 matmuls inhomo. stacks                         0       0.0%      0.0%      0.0%
 matmuls total                              18731       0.0%    100.0%      0.0%
 number of processed stacks                 17531       0.0%    100.0%      0.0%
 average stack size                                     0.0       1.1       0.0
 marketing flops                    59.969372E+06
 -------------------------------------------------------------------------------
 # multiplications                           1734
 max memory usage/rank               2.240840E+09
 # max total images/rank                        2
 # max 3D layers                                1
 # MPI messages exchanged                 6436608
 MPI messages size (bytes):
  total size                       476.051648E+06
  min size                           0.000000E+00
  max size                          11.160000E+03
  average size                      73.960022E+00
 MPI breakdown and total messages size (bytes):
             size <=      128             6279297                        0
       128 < size <=     8192              142311                308651664
      8192 < size <=    32768               15000                167400000
     32768 < size <=   131072                   0                        0
    131072 < size <=  4194304                   0                        0
   4194304 < size <= 16777216                   0                        0
  16777216 < size                               0                        0
 -------------------------------------------------------------------------------

 *** WARNING in dbcsr_mm.F:291 :: Using a non-square number of MPI ranks ***
 *** might lead to poor performance. Used ranks: 128 Suggested: 121 256  ***

 -------------------------------------------------------------------------------
 -                                                                             -
 -                      DBCSR MESSAGE PASSING PERFORMANCE                      -
 -                                                                             -
 -------------------------------------------------------------------------------
 ROUTINE             CALLS      AVE VOLUME [Bytes]
 MP_Bcast               24                     12.
 MP_Allreduce         7410                      8.
 MP_Alltoall         28536                  36478.
 MP_ISend           108238                    371.
 MP_IRecv           107472                    266.
 -------------------------------------------------------------------------------

 -------------------------------------------------------------------------------
 -                                                                             -
 -                                DBM STATISTICS                               -
 -                                                                             -
 -------------------------------------------------------------------------------
    M  x    N  x    K                                          COUNT     PERCENT
 -------------------------------------------------------------------------------

 -------------------------------------------------------------------------------
 -                                                                             -
 -                                GRID STATISTICS                              -
 -                                                                             -
 -------------------------------------------------------------------------------
 LP    KERNEL             BACKEND                              COUNT     PERCENT
 2     collocate general  CPU                                  36864      19.31%
 2     integrate general  CPU                                  36096      18.91%
 1     collocate ortho    CPU                                  17034       8.92%
 1     integrate ortho    CPU                                  16728       8.76%
 2     collocate ortho    CPU                                  15197       7.96%
 2     integrate ortho    CPU                                  14924       7.82%
 0     collocate ortho    CPU                                  13527       7.09%
 0     integrate ortho    CPU                                  13284       6.96%
 3     collocate ortho    CPU                                   8684       4.55%
 3     integrate ortho    CPU                                   8528       4.47%
 4     collocate ortho    CPU                                   3507       1.84%
 4     integrate ortho    CPU                                   3444       1.80%
 5     collocate ortho    CPU                                   1002       0.52%
 5     integrate ortho    CPU                                    984       0.52%
 0     collocate general  CPU                                    384       0.20%
 0     integrate general  CPU                                    384       0.20%
 6     collocate ortho    CPU                                    167       0.09%
 6     integrate ortho    CPU                                    164       0.09%
 -------------------------------------------------------------------------------

 MEMORY| Estimated peak process memory [MiB]                                2242

 -------------------------------------------------------------------------------
 ----                             MULTIGRID INFO                            ----
 -------------------------------------------------------------------------------
 count for grid        1:         271491          cutoff [a.u.]         1000.00
 count for grid        2:          77522          cutoff [a.u.]          333.33
 count for grid        3:         102604          cutoff [a.u.]          111.11
 count for grid        4:          29500          cutoff [a.u.]           37.04
 count for grid        5:           3845          cutoff [a.u.]           12.35
 total gridlevel count  :         484962

 -------------------------------------------------------------------------------
 -                                                                             -
 -                         MESSAGE PASSING PERFORMANCE                         -
 -                                                                             -
 -------------------------------------------------------------------------------

 ROUTINE             CALLS      AVE VOLUME [Bytes]
 MP_Group                6
 MP_Bcast             1421                 253347.
 MP_Allreduce         8039                   5864.
 MP_Sync              1610
 MP_Alltoall          4394               37577691.
 MP_SendRecv         63627                 206144.
 MP_ISendRecv       139954                  96279.
 MP_Wait            178450
 MP_comm_split          82
 MP_ISend            32452                 897356.
 MP_IRecv            35080                 830083.
 -------------------------------------------------------------------------------


 -------------------------------------------------------------------------------
 -                                                                             -
 -                           R E F E R E N C E S                               -
 -                                                                             -
 -------------------------------------------------------------------------------
 
 CP2K version 2024.1 (Development Version), the CP2K developers group (2024).
 CP2K is freely available from https://www.cp2k.org/ .

 Kuehne,Thomas D.; Iannuzzi,Marcella; Del Ben,Mauro;
 Rybkin,Vladimir V.; Seewald,Patrick; Stein,Frederick; Laino,Teodoro;
 Khaliullin,Rustam Z.; Schuett,Ole; Schiffmann,Florian; Golze,Dorothea;
 Wilhelm,Jan; Chulkov,Sergey; Bani-Hashemian,Mohammad Hossein;
 Weber,Valery; Borstnik,Urban; Taillefumier,Mathieu;
 Jakobovits,Alice Shoshana; Lazzaro,Alfio; Pabst,Hans; Mueller,Tiziano;
 Schade,Robert; Guidon,Manuel; Andermatt,Samuel; Holmberg,Nico;
 Schenter,Gregory K.; Hehn,Anna; Bussy,Augustin; Belleflamme,Fabian;
 Tabacchi,Gloria; Gloess,Andreas; Lass,Michael; Bethune,Iain;
 Mundy,Christopher J.; Plessl,Christian; Watkins,Matt;
 VandeVondele,Joost; Krack,Matthias; Hutter,Juerg. 
 The Journal of Chemical Physics, 152 (19), (2020). 
 CP2K: An electronic structure and molecular dynamics software package -
 Quickstep: Efficient and accurate electronic structure calculations.
 https://doi.org/10.1063/5.0007045

 Schuett, Ole; Messmer, Peter; Hutter, Juerg; VandeVondele, Joost. 
 Electronic Structure Calculations on Graphics Processing Units, John
 Wiley & Sons, Ltd, 173-190 (2016). 
 GPU-Accelerated Sparse Matrix-Matrix Multiplication for
 Linear Scaling Density Functional Theory.
 https://doi.org/10.1002/9781118670712.ch8

 Heinecke, A; Henry, G; Hutchinson, M; Pabst, H. 
 Proceedings of Intl. Supercomputing Conference, 981-991 (2016). 
 LIBXSMM: Accelerating Small Matrix Multiplications
 by Runtime Code Generation.
 https://doi.org/10.1109/SC.2016.83

 Borstnik, U; VandeVondele, J; Weber, V; Hutter, J. 
 PARALLEL COMPUTING, 40 (5-6), 47-58 (2014). 
 Sparse matrix multiplication: The distributed block-compressed sparse
 row library.
 https://doi.org/10.1016/j.parco.2014.03.012

 Hutter, J; Iannuzzi, M; Schiffmann, F; VandeVondele, J. 
 WIREs Comput Mol Sci., 4 (1), 15-25 (2014). 
 CP2K: atomistic simulations of condensed matter systems.
 https://doi.org/10.1002/wcms.1159

 Guidon, M; Hutter, J; VandeVondele, J. 
 JOURNAL OF CHEMICAL THEORY AND COMPUTATION, 5 (11), 3010-3021 (2009). 
 Robust Periodic Hartree-Fock Exchange for Large-Scale Simulations Using
 Gaussian Basis Sets.
 https://doi.org/10.1021/ct900494g

 Guidon, M; Schiffmann, F; Hutter, J; VandeVondele, J. 
 JOURNAL OF CHEMICAL PHYSICS, 128 (21), 214104 (2008). 
 Ab initio molecular dynamics using hybrid density functionals.
 https://doi.org/10.1063/1.2931945

 Frigo, M; Johnson, SG. 
 PROCEEDINGS OF THE IEEE, 93 (2), 216-231 (2005). 
 The design and implementation of FFTW3.
 https://doi.org/10.1109/JPROC.2004.840301

 Iannuzzi, M; Chassaing, T; Wallman, T; Hutter, J. 
 CHIMIA, 59 (7-8), 499-503 (2005). 
 Ground and excited state density functional calculations with the
 Gaussian and augmented-plane-wave method.
 https://doi.org/10.2533/000942905777676164

 VandeVondele, J; Hutter, J. 
 JOURNAL OF CHEMICAL PHYSICS, 118 (10), 4365-4369 (2003). 
 An efficient orbital transformation method for electronic structure
 calculations.
 https://doi.org/10.1063/1.1543154

 Martin,Richard L.. 
 The Journal of Chemical Physics, 118 (11), 4775-4777 (2003). 
 Natural transition orbitals.
 https://doi.org/10.1063/1.1558471

 Lippert, G; Hutter, J; Parrinello, M. 
 THEORETICAL CHEMISTRY ACCOUNTS, 103 (2), 124-140 (1999). 
 The Gaussian and augmented-plane-wave density functional method for ab
 initio molecular dynamics simulations.
 https://doi.org/10.1007/s002140050523

 Krack, M; Parrinello, M. 
 PHYSICAL CHEMISTRY CHEMICAL PHYSICS, 2 (10), 2105-2112 (2000). 
 All-electron ab-initio molecular dynamics.
 https://doi.org/10.1039/b001167n

 Martyna, GJ; Tuckerman, ME. 
 JOURNAL OF CHEMICAL PHYSICS, 110 (6), 2810-2821 (1999). 
 A reciprocal space based method for treating long range interactions in
 ab initio and force-field-based calculations in clusters.
 https://doi.org/10.1063/1.477923

 Perdew, JP; Burke, K; Ernzerhof, M. 
 PHYSICAL REVIEW LETTERS, 77 (18), 3865-3868 (1996). 
 Generalized gradient approximation made simple.
 https://doi.org/10.1103/PhysRevLett.77.3865


 -------------------------------------------------------------------------------
 -                                                                             -
 -                                T I M I N G                                  -
 -                                                                             -
 -------------------------------------------------------------------------------
 SUBROUTINE                       CALLS  ASD         SELF TIME        TOTAL TIME
                                MAXIMUM       AVERAGE  MAXIMUM  AVERAGE  MAXIMUM
 CP2K                                 1  1.0     4.98     5.50 13491.38 13491.45
 qs_energies                          1  2.0     0.03     0.10 13428.03 13428.07
 qs_energies_properties               1  3.0     0.00     0.01 11398.41 11398.47
 tddfpt                               1  4.0     0.02     0.08 11398.41 11398.47
 tddfpt_soc_energies                  1  5.0     0.00     0.07 11369.18 11369.23
 tddfpt_energies                      2  6.0     0.00     0.13 11286.85 11286.96
 tddfpt_davidson_solver               4  7.0     0.03     0.49 10646.67 10646.73
 tddfpt_compute_Aop_evects           14  8.0     0.00     0.01  9863.69  9863.99
 fhxc_kernel                         14  9.0     0.03     0.07  7878.65  7878.93
 pw_transfer                       3667 12.2     0.30     0.43  4329.93  4343.49
 fft_wrap_pw1pw2                   3383 13.2     0.03     0.07  4328.35  4341.83
 fft3d_ps                          3383 15.2   151.46   172.99  4238.06  4253.81
 fft_wrap_pw1pw2_1000              2058 14.4    14.06    15.22  3968.07  3980.75
 mp_alltoall_z22v                  3383 17.2  3913.09  3940.86  3913.09  3940.86
 mp_waitall_1                    337578 14.3  2978.82  3040.38  2978.82  3040.38
 qs_rho_update_rho_low              167  9.2     0.01     0.06  2717.20  2722.05
 integrate_v_rspace                 164  9.9     0.01     0.03  2613.29  2619.39
 calculate_rho_elec                 167 10.2     1.32     1.74  2603.99  2605.27
 density_rs2pw                      167 11.2     0.02     0.06  2564.37  2570.43
 potential_pw2rs                    164 10.9     0.07     0.12  2549.07  2566.19
 tddfpt_apply_xc_analytic           140 10.0     2.61     3.37  2385.80  2390.18
 xc_pw_derive                      1203 11.7     0.02     0.07  2344.87  2350.81
 x_to_yz                           1464 16.0    25.75    36.26  2124.88  2132.94
 transfer_pw2rs                     915 11.8     0.01     0.03  2116.54  2130.80
 scf_env_do_scf                       1  3.0     0.00     0.10  1983.30  1983.32
 yz_to_x                           1257 16.7    14.56    15.55  1793.66  1810.13
 scf_env_do_scf_inner_loop           24  4.0     0.02     0.80  1801.71  1801.77
 transfer_rs2pw                     932 12.1     0.01     0.04  1736.74  1750.40
 cp_dbcsr_sm_fm_multiply            883  9.5     0.01     0.04  1729.18  1742.15
 tddfpt_apply_hfx                    14  9.0     0.01     0.05  1687.28  1687.36
 mp_sendrecv_dv                   63627 14.2  1497.17  1508.67  1497.17  1508.67
 dbcsr_complete_redistribute       2869 11.5     0.06     0.21  1408.37  1433.27
 transfer_pw2rs_120                 164 12.9    14.25    19.12  1246.04  1290.25
 xc_pw_divergence                   164 11.7     0.01     0.04  1271.94  1277.72
 xc_calc_2nd_deriv_analytical       420 11.0    44.70    54.74  1145.28  1146.63
 integrate_four_center              304 10.8     0.10     0.31  1133.49  1137.49
 copy_dbcsr_to_fm                   961 10.4     0.01     0.03  1013.49  1028.36
 qs_ks_update_qs_env                 26  5.0     0.00     0.01  1017.92  1018.71
 rebuild_ks_matrix                   24  6.0     0.00     0.02  1014.39  1015.52
 qs_ks_build_kohn_sham_matrix        24  7.0     0.03     0.10  1014.38  1015.52
 tddft_hfx_matrix                   280 10.0     0.01     0.06   996.20  1000.00
 transfer_rs2pw_120                 167 13.2     4.63     6.35   975.45   988.64
 dbcsr_multiply_generic            1734 11.0     0.06     0.19   905.46   929.17
 mp_alltoall_d11v                 11899 12.7   633.87   686.91   633.87   686.91
 copy_fm_to_dbcsr                  1904 10.6     0.00     0.02   652.41   677.53
 integrate_four_center_getP         304 11.8     0.03     0.11   593.68   597.13
 cp_fm_syevd                         82  9.2     0.00     0.00   571.30   572.41
 tddfpt_print_nto_analysis            2  7.0     0.02     0.40   517.48   517.70
 tddfpt_orthonormalize_psi1_psi      16  7.9     0.01     0.05   511.94   513.72
 mp_alltoall_i11v                  9644 12.5   503.12   504.62   503.12   504.62
 integrate_four_center_dist_KS      304 11.8     0.04     0.08   501.34   502.08
 qs_scf_new_mos                      24  5.0     0.00     0.01   488.02   488.37
 qs_scf_loop_do_ot                   24  6.0     0.00     0.00   488.02   488.37
 ot_scf_mini                         24  7.0     0.00     0.02   471.45   471.78
 cp_fm_redistribute_end              82 10.2   255.99   460.32   260.62   463.02
 mp_sum_l                          7164 11.3   420.21   435.24   420.21   435.24
 transfer_pw2rs_40                  164 12.9     1.08     6.62   381.88   416.36
 cp_fm_syevd_base                    82 10.2   199.43   403.00   199.43   403.00
 sum_up_and_integrate                24  8.0     0.00     0.01   391.84   392.58
 mp_waitany                       32452 13.9   342.83   388.25   342.83   388.25
 cp_dbcsr_sm_fm_multiply_core       883 10.5     0.00     0.00   356.65   378.24
 cp_fm_geeig                         20  8.0     0.01     0.05   331.15   331.39
 qs_vxc_create                       24  8.0     0.00     0.04   330.75   330.92
 xc_vxc_pw_create                    24  9.0     0.95     1.17   330.75   330.92
 mp_cart_sub                       1930 12.4   313.98   314.82   313.98   314.82
 transfer_pw2rs_20                  164 12.9     0.23     0.39   302.70   314.80
 transfer_rs2pw_40                  167 13.2     0.81     2.75   289.94   303.62
 tddfpt_apply_energy_diff            14  9.0     0.00     0.01   297.76   297.87
 cp_dbcsr_plus_fm_fm_t_native       141 10.0     0.01     0.04   283.14   284.92
 dbcsr_desymmetrize_deep            962 11.4     0.02     0.06   259.16   274.18
 prepare_gapw_den                   166  9.7     0.01     0.04   270.53   272.48
 -------------------------------------------------------------------------------

 The number of warnings for this run is : 1
 
 -------------------------------------------------------------------------------
  **** **** ******  **  PROGRAM ENDED AT                 2024-02-06 12:51:34.803
 ***** ** ***  *** **   PROGRAM RAN ON                               nesh-srp167
 **    ****   ******    PROGRAM RAN BY                                  suphc355
 ***** **    ** ** **   PROGRAM PROCESS ID                                989653
  **** **  *******  **  PROGRAM STOPPED IN /gxfs_work/cau/suphc355/homologes/H2X
                                           /AE/O
