       3
 i =        3, E =       -17.2216823812
  H         4.7652544963        3.9999999958        4.2986025754
  H         3.2347455042        4.0000000037        4.2986025815
  O         3.9999999978        4.0000000012        3.7015767887
