

 DBCSR| CPU Multiplication driver                                           XSMM (U)
 DBCSR| Multrec recursion limit                                              512 (U)
 DBCSR| Multiplication stack size                                           1000 (D)
 DBCSR| Maximum elements for images                                    UNLIMITED (U)
 DBCSR| Multiplicative factor virtual images                                   1 (U)
 DBCSR| Use multiplication densification                                       T (D)
 DBCSR| Multiplication size stacks                                             3 (U)
 DBCSR| Use memory pool for CPU allocation                                     F (U)
 DBCSR| Number of 3D layers                                               SINGLE (U)
 DBCSR| Use MPI memory allocation                                              F (U)
 DBCSR| Use RMA algorithm                                                      F (U)
 DBCSR| Use Communication thread                                               T (U)
 DBCSR| Communication thread load                                             87 (D)
 DBCSR| MPI: My process id                                                     0
 DBCSR| MPI: Number of processes                                             128
 DBCSR| OMP: Current number of threads                                         1
 DBCSR| OMP: Max number of threads                                             1
 DBCSR| Split modifier for TAS multiplication algorithm                  1.0E+00 (U)


  **** **** ******  **  PROGRAM STARTED AT               2024-02-05 10:58:37.020
 ***** ** ***  *** **   PROGRAM STARTED ON                           nesh-clk577
 **    ****   ******    PROGRAM STARTED BY                              suphc355
 ***** **    ** ** **   PROGRAM PROCESS ID                                279830
  **** **  *******  **  PROGRAM STARTED IN /gxfs_work/cau/suphc355/homologes/CH2
                                           X/AE/O

 CP2K| version string:                 CP2K version 2024.1 (Development Version)
 CP2K| source code revision number:                                  git:b6f9133
 CP2K| cp2kflags: omp libint fftw3 libxc libgrpp parallel mpi_f08 scalapack cosm
 CP2K|            a xsmm spglib mkl
 CP2K| is freely available from                            https://www.cp2k.org/
 CP2K| Program compiled at                          Fr 26. Jan 09:14:30 CET 2024
 CP2K| Program compiled on                                           nesh-login3
 CP2K| Program compiled for                                                local
 CP2K| Data directory path            /gxfs_home/cau/suphc355/software/cp2k/data
 CP2K| Input file name                                                    AE.inp
 
 GLOBAL| Force Environment number                                              1
 GLOBAL| Basis set file name                                 ../../../basis_zora
 GLOBAL| Potential file name                                           POTENTIAL
 GLOBAL| MM Potential file name                                     MM_POTENTIAL
 GLOBAL| Coordinate file name                                            opt.xyz
 GLOBAL| Method name                                                        CP2K
 GLOBAL| Project name                                                    CH2O_AE
 GLOBAL| Run type                                                         ENERGY
 GLOBAL| FFT library                                                       FFTW3
 GLOBAL| Diagonalization library                                       ScaLAPACK
 GLOBAL| DGEMM library                                                      BLAS
 GLOBAL| Orthonormality check for eigenvectors                          DISABLED
 GLOBAL| Matrix multiplication library                                     COSMA
 GLOBAL| All-to-all communication in single precision                          F
 GLOBAL| FFTs using library dependent lengths                                  F
 GLOBAL| Grid backend                                                       AUTO
 GLOBAL| Global print level                                               MEDIUM
 GLOBAL| MPI I/O enabled                                                       T
 GLOBAL| Total number of message passing processes                           128
 GLOBAL| Number of threads for this process                                    1
 GLOBAL| This output is from process                                           0
 GLOBAL| Stack size for threads created by OpenMP (OMP_STACKSIZE)        default
 GLOBAL| CPU model name                Intel(R) Xeon(R) Gold 6226R CPU @ 2.90GHz
 GLOBAL| CPUID                                                              1003

 MEMORY| system memory details [Kb]
 MEMORY|                        rank 0           min           max       average
 MEMORY| MemTotal            196683224     196683180     196683224     196683213
 MEMORY| MemFree             177210504     177210504     177581136     177469341
 MEMORY| Buffers                293432        238264        293432        256429
 MEMORY| Cached                 534672        462972        538716        515511
 MEMORY| Slab                   528548        526324        565516        536747
 MEMORY| SReclaimable           132236        121756        132236        125534
 MEMORY| MemLikelyFree       178170844     178170844     178479672     178366815


 *** Fundamental physical constants (SI units) ***

 *** Literature: B. J. Mohr and B. N. Taylor,
 ***             CODATA recommended values of the fundamental physical
 ***             constants: 2006, Web Version 5.1
 ***             http://physics.nist.gov/constants

 Speed of light in vacuum [m/s]                             2.99792458000000E+08
 Magnetic constant or permeability of vacuum [N/A**2]       1.25663706143592E-06
 Electric constant or permittivity of vacuum [F/m]          8.85418781762039E-12
 Planck constant (h) [J*s]                                  6.62606896000000E-34
 Planck constant (h-bar) [J*s]                              1.05457162825177E-34
 Elementary charge [C]                                      1.60217648700000E-19
 Electron mass [kg]                                         9.10938215000000E-31
 Electron g factor [ ]                                     -2.00231930436220E+00
 Proton mass [kg]                                           1.67262163700000E-27
 Fine-structure constant                                    7.29735253760000E-03
 Rydberg constant [1/m]                                     1.09737315685270E+07
 Avogadro constant [1/mol]                                  6.02214179000000E+23
 Boltzmann constant [J/K]                                   1.38065040000000E-23
 Atomic mass unit [kg]                                      1.66053878200000E-27
 Bohr radius [m]                                            5.29177208590000E-11

 *** Conversion factors ***

 [u] -> [a.u.]                                              1.82288848426455E+03
 [Angstrom] -> [Bohr] = [a.u.]                              1.88972613288564E+00
 [a.u.] = [Bohr] -> [Angstrom]                              5.29177208590000E-01
 [a.u.] -> [s]                                              2.41888432650478E-17
 [a.u.] -> [fs]                                             2.41888432650478E-02
 [a.u.] -> [J]                                              4.35974393937059E-18
 [a.u.] -> [N]                                              8.23872205491840E-08
 [a.u.] -> [K]                                              3.15774647902944E+05
 [a.u.] -> [kJ/mol]                                         2.62549961709828E+03
 [a.u.] -> [kcal/mol]                                       6.27509468713739E+02
 [a.u.] -> [Pa]                                             2.94210107994716E+13
 [a.u.] -> [bar]                                            2.94210107994716E+08
 [a.u.] -> [atm]                                            2.90362800883016E+08
 [a.u.] -> [eV]                                             2.72113838565563E+01
 [a.u.] -> [Hz]                                             6.57968392072181E+15
 [a.u.] -> [1/cm] (wave numbers)                            2.19474631370540E+05
 [a.u./Bohr**2] -> [1/cm]                                   5.14048714338585E+03
 

 CELL_TOP| Volume [angstrom^3]:                                      8000.000000
 CELL_TOP| Vector a [angstrom    20.000     0.000     0.000   |a| =    20.000000
 CELL_TOP| Vector b [angstrom     0.000    20.000     0.000   |b| =    20.000000
 CELL_TOP| Vector c [angstrom     0.000     0.000    20.000   |c| =    20.000000
 CELL_TOP| Angle (b,c), alpha [degree]:                                90.000000
 CELL_TOP| Angle (a,c), beta  [degree]:                                90.000000
 CELL_TOP| Angle (a,b), gamma [degree]:                                90.000000
 CELL_TOP| Numerically orthorhombic:                                         YES
 CELL_TOP| Periodicity                                                      NONE
 
 GENERATE|  Preliminary Number of Bonds generated:                             0
 GENERATE|  Achieved consistency in connectivity generation.

 CELL| Volume [angstrom^3]:                                          8000.000000
 CELL| Vector a [angstrom]:      20.000     0.000     0.000   |a| =    20.000000
 CELL| Vector b [angstrom]:       0.000    20.000     0.000   |b| =    20.000000
 CELL| Vector c [angstrom]:       0.000     0.000    20.000   |c| =    20.000000
 CELL| Angle (b,c), alpha [degree]:                                    90.000000
 CELL| Angle (a,c), beta  [degree]:                                    90.000000
 CELL| Angle (a,b), gamma [degree]:                                    90.000000
 CELL| Numerically orthorhombic:                                             YES
 CELL| Periodicity                                                          NONE

 CELL_REF| Volume [angstrom^3]:                                      8000.000000
 CELL_REF| Vector a [angstrom    20.000     0.000     0.000   |a| =    20.000000
 CELL_REF| Vector b [angstrom     0.000    20.000     0.000   |b| =    20.000000
 CELL_REF| Vector c [angstrom     0.000     0.000    20.000   |c| =    20.000000
 CELL_REF| Angle (b,c), alpha [degree]:                                90.000000
 CELL_REF| Angle (a,c), beta  [degree]:                                90.000000
 CELL_REF| Angle (a,b), gamma [degree]:                                90.000000
 CELL_REF| Numerically orthorhombic:                                         YES
 CELL_REF| Periodicity                                                      NONE

 *******************************************************************************
 *******************************************************************************
 **                                                                           **
 **     #####                         ##              ##                      **
 **    ##   ##            ##          ##              ##                      **
 **   ##     ##                       ##            ######                    **
 **   ##     ##  ##   ##  ##   #####  ##  ##   ####   ##    #####    #####    **
 **   ##     ##  ##   ##  ##  ##      ## ##   ##      ##   ##   ##  ##   ##   **
 **   ##  ## ##  ##   ##  ##  ##      ####     ###    ##   ######   ######    **
 **    ##  ###   ##   ##  ##  ##      ## ##      ##   ##   ##       ##        **
 **     #######   #####   ##   #####  ##  ##  ####    ##    #####   ##        **
 **           ##                                                    ##        **
 **                                                                           **
 **                                                ... make the atoms dance   **
 **                                                                           **
 **            Copyright (C) by CP2K developers group (2000-2024)             **
 **                      J. Chem. Phys. 152, 194103 (2020)                    **
 **                                                                           **
 *******************************************************************************

 DFT| Spin restricted Kohn-Sham (RKS) calculation                            RKS
 DFT| Multiplicity                                                             1
 DFT| Number of spin states                                                    1
 DFT| Charge                                                                   0
 DFT| Self-interaction correction (SIC)                                       NO
 DFT| Cutoffs: density                                              1.000000E-10
 DFT|          gradient                                             1.000000E-10
 DFT|          tau                                                  1.000000E-10
 DFT|          cutoff_smoothing_range                               0.000000E+00
 DFT| XC density smoothing                                                  NONE
 DFT| XC derivatives                                                          PW

 FUNCTIONAL| PBE:
 FUNCTIONAL| J.P.Perdew, K.Burke, M.Ernzerhof, Phys. Rev. Letter, vol. 77, n 18,
 FUNCTIONAL|  pp. 3865-3868, (1996)sx=0.750sc=1.000{spin unpolarized}           


 QS| Method:                                                                GAPW
 QS| Density plane wave grid type                        NON-SPHERICAL FULLSPACE
 QS| Number of grid levels:                                                    5
 QS| Density cutoff [a.u.]:                                                600.0
 QS| Multi grid cutoff [a.u.]: 1) grid level                               600.0
 QS|                           2) grid level                               200.0
 QS|                           3) grid level                                66.7
 QS|                           4) grid level                                22.2
 QS|                           5) grid level                                 7.4
 QS| Grid level progression factor:                                          3.0
 QS| Relative density cutoff [a.u.]:                                        40.0
 QS| Interaction thresholds: eps_pgf_orb:                                1.0E-30
 QS|                         eps_filter_matrix:                          0.0E+00
 QS|                         eps_core_charge:                            1.0E-17
 QS|                         eps_rho_gspace:                             1.0E-15
 QS|                         eps_rho_rspace:                             1.0E-15
 QS|                         eps_gvg_rspace:                             3.2E-08
 QS|                         eps_ppl:                                    1.0E-02
 QS|                         eps_ppnl:                                   3.2E-10
 QS| GAPW|      One center basis from orbital basis primitives
 QS| GAPW|                   eps_fit:                                    1.0E-04
 QS| GAPW|                   eps_iso:                                    1.0E-12
 QS| GAPW|                   eps_svd:                                    1.0E-08
 QS| GAPW|                   eps_cpc:                                    1.0E-15
 QS| GAPW|   atom-r-grid: quadrature:                                     GC_LOG
 QS| GAPW|      atom-s-grid:  max l :                                          6
 QS| GAPW|      max_l_rho0 :                                                   2


 ATOMIC KIND INFORMATION

  1. Atomic kind: O                                     Number of atoms:       1

     Orbital Basis Set                                                  TZP-ZORA

       Number of orbital shell sets:                                          11
       Number of orbital shells:                                              11
       Number of primitive Cartesian functions:                               19
       Number of Cartesian basis functions:                                   36
       Number of spherical basis functions:                                   31
       Norm type:                                                              2

       Normalised Cartesian orbitals:

                        Set   Shell   Orbital            Exponent    Coefficient

                          1       1    1s            12870.845084       1.670134
                                                      1952.247772       2.965847
                                                       454.029695       4.900265
                                                       130.283728       7.253134
                                                        42.792733       8.736813

                          2       1    1s               15.446290       3.273046
                                                         5.877661       1.213404

                          3       1    1s                1.534264       0.982506

                          4       1    1s                0.816007       0.611900

                          5       1    1s                0.260111       0.259585

                          6       1    1px              63.352470       3.122975
                                                        14.669976       3.412732
                                                         4.466319       3.006132
                                                         1.531280       1.705805
                          6       1    1py              63.352470       3.122975
                                                        14.669976       3.412732
                                                         4.466319       3.006132
                                                         1.531280       1.705805
                          6       1    1pz              63.352470       3.122975
                                                        14.669976       3.412732
                                                         4.466319       3.006132
                                                         1.531280       1.705805

                          7       1    1px               0.544005       0.665954
                          7       1    1py               0.544005       0.665954
                          7       1    1pz               0.544005       0.665954

                          8       1    1px               0.179985       0.167103
                          8       1    1py               0.179985       0.167103
                          8       1    1pz               0.179985       0.167103

                          9       1    1dx2              2.390160       7.562348
                          9       1    1dxy              2.390160      13.098371
                          9       1    1dxz              2.390160      13.098371
                          9       1    1dy2              2.390160       7.562348
                          9       1    1dyz              2.390160      13.098371
                          9       1    1dz2              2.390160       7.562348

                         10       1    1dx2              0.681833       0.842066
                         10       1    1dxy              0.681833       1.458501
                         10       1    1dxz              0.681833       1.458501
                         10       1    1dy2              0.681833       0.842066
                         10       1    1dyz              0.681833       1.458501
                         10       1    1dz2              0.681833       0.842066

                         11       1    1fx3              1.510948       3.726197
                         11       1    1fx2y             1.510948       8.332031
                         11       1    1fx2z             1.510948       8.332031
                         11       1    1fxy2             1.510948       8.332031
                         11       1    1fxyz             1.510948      14.431501
                         11       1    1fxz2             1.510948       8.332031
                         11       1    1fy3              1.510948       3.726197
                         11       1    1fy2z             1.510948       8.332031
                         11       1    1fyz2             1.510948       8.332031
                         11       1    1fz3              1.510948       3.726197

       Atomic covalent radius [Angstrom]:                                  0.730

       Atomic van der Waals radius [Angstrom]:                             1.520

     The atoms of this atomic kind are PAW atoms (GAPW):
       Hard Gaussian function radius:                                      1.512
       Rho0 radius:                                                        1.512
       Maximum GTO radius used for PAW projector construction:            24.566

     GAPW Soft Basis Set                                           TZP-ZORA_soft

       Number of orbital shell sets:                                          11
       Number of orbital shells:                                              11
       Number of primitive Cartesian functions:                                9
       Number of Cartesian basis functions:                                   36
       Number of spherical basis functions:                                   31
       Norm type:                                                              2

       Normalised Cartesian orbitals:

                        Set   Shell   Orbital            Exponent    Coefficient

                          1       1    1s         

                          2       1    1s         

                          3       1    1s                1.534264       0.982506

                          4       1    1s                0.816007       0.611900

                          5       1    1s                0.260111       0.259585

                          6       1    1px               1.531280       1.705805
                          6       1    1py               1.531280       1.705805
                          6       1    1pz               1.531280       1.705805

                          7       1    1px               0.544005       0.665954
                          7       1    1py               0.544005       0.665954
                          7       1    1pz               0.544005       0.665954

                          8       1    1px               0.179985       0.167103
                          8       1    1py               0.179985       0.167103
                          8       1    1pz               0.179985       0.167103

                          9       1    1dx2              2.390160       7.562348
                          9       1    1dxy              2.390160      13.098371
                          9       1    1dxz              2.390160      13.098371
                          9       1    1dy2              2.390160       7.562348
                          9       1    1dyz              2.390160      13.098371
                          9       1    1dz2              2.390160       7.562348

                         10       1    1dx2              0.681833       0.842066
                         10       1    1dxy              0.681833       1.458501
                         10       1    1dxz              0.681833       1.458501
                         10       1    1dy2              0.681833       0.842066
                         10       1    1dyz              0.681833       1.458501
                         10       1    1dz2              0.681833       0.842066

                         11       1    1fx3              1.510948       3.726197
                         11       1    1fx2y             1.510948       8.332031
                         11       1    1fx2z             1.510948       8.332031
                         11       1    1fxy2             1.510948       8.332031
                         11       1    1fxyz             1.510948      14.431501
                         11       1    1fxz2             1.510948       8.332031
                         11       1    1fy3              1.510948       3.726197
                         11       1    1fy2z             1.510948       8.332031
                         11       1    1fyz2             1.510948       8.332031
                         11       1    1fz3              1.510948       3.726197

     AE Potential information for                                            ALL

       Description:                                       All-electron potential
                                          Krack, Parrinello, PCCP 2, 2105 (2000)

       Gaussian exponent of the core charge distribution:               8.154466
       Electronic configuration (s p d ...):                           4   4   0

  2. Atomic kind: C                                     Number of atoms:       1

     Orbital Basis Set                                                  TZP-ZORA

       Number of orbital shell sets:                                          11
       Number of orbital shells:                                              11
       Number of primitive Cartesian functions:                               19
       Number of Cartesian basis functions:                                   36
       Number of spherical basis functions:                                   31
       Norm type:                                                              2

       Normalised Cartesian orbitals:

                        Set   Shell   Orbital            Exponent    Coefficient

                          1       1    1s             7615.059991       1.058240
                                                      1145.086846       1.933008
                                                       261.919524       3.218528
                                                        74.668342       4.773822
                                                        24.405512       5.743063

                          2       1    1s                8.686790       2.126261
                                                         3.236576       0.778233

                          3       1    1s                1.301800       0.868597

                          4       1    1s                0.527689       0.441259

                          5       1    1s                0.156945       0.177714

                          6       1    1px              34.507679       1.410559
                                                         7.913044       1.480250
                                                         2.366155       1.321166
                                                         0.811724       0.784026
                          6       1    1py              34.507679       1.410559
                                                         7.913044       1.480250
                                                         2.366155       1.321166
                                                         0.811724       0.784026
                          6       1    1pz              34.507679       1.410559
                                                         7.913044       1.480250
                                                         2.366155       1.321166
                                                         0.811724       0.784026

                          7       1    1px               0.312289       0.332763
                          7       1    1py               0.312289       0.332763
                          7       1    1pz               0.312289       0.332763

                          8       1    1px               0.114003       0.094424
                          8       1    1py               0.114003       0.094424
                          8       1    1pz               0.114003       0.094424

                          9       1    1dx2              1.154049       2.114959
                          9       1    1dxy              1.154049       3.663216
                          9       1    1dxz              1.154049       3.663216
                          9       1    1dy2              1.154049       2.114959
                          9       1    1dyz              1.154049       3.663216
                          9       1    1dz2              1.154049       2.114959

                         10       1    1dx2              0.351129       0.263618
                         10       1    1dxy              0.351129       0.456600
                         10       1    1dxz              0.351129       0.456600
                         10       1    1dy2              0.351129       0.263618
                         10       1    1dyz              0.351129       0.456600
                         10       1    1dz2              0.351129       0.263618

                         11       1    1fx3              0.819312       0.940190
                         11       1    1fx2y             0.819312       2.102328
                         11       1    1fx2z             0.819312       2.102328
                         11       1    1fxy2             0.819312       2.102328
                         11       1    1fxyz             0.819312       3.641338
                         11       1    1fxz2             0.819312       2.102328
                         11       1    1fy3              0.819312       0.940190
                         11       1    1fy2z             0.819312       2.102328
                         11       1    1fyz2             0.819312       2.102328
                         11       1    1fz3              0.819312       0.940190

       Atomic covalent radius [Angstrom]:                                  0.770

       Atomic van der Waals radius [Angstrom]:                             1.700

     The atoms of this atomic kind are PAW atoms (GAPW):
       Hard Gaussian function radius:                                      1.512
       Rho0 radius:                                                        1.512
       Maximum GTO radius used for PAW projector construction:            24.566

     GAPW Soft Basis Set                                           TZP-ZORA_soft

       Number of orbital shell sets:                                          11
       Number of orbital shells:                                              11
       Number of primitive Cartesian functions:                               11
       Number of Cartesian basis functions:                                   36
       Number of spherical basis functions:                                   31
       Norm type:                                                              2

       Normalised Cartesian orbitals:

                        Set   Shell   Orbital            Exponent    Coefficient

                          1       1    1s         

                          2       1    1s                3.236576       0.778233

                          3       1    1s                1.301800       0.868597

                          4       1    1s                0.527689       0.441259

                          5       1    1s                0.156945       0.177714

                          6       1    1px               2.366155       1.321166
                                                         0.811724       0.784026
                          6       1    1py               2.366155       1.321166
                                                         0.811724       0.784026
                          6       1    1pz               2.366155       1.321166
                                                         0.811724       0.784026

                          7       1    1px               0.312289       0.332763
                          7       1    1py               0.312289       0.332763
                          7       1    1pz               0.312289       0.332763

                          8       1    1px               0.114003       0.094424
                          8       1    1py               0.114003       0.094424
                          8       1    1pz               0.114003       0.094424

                          9       1    1dx2              1.154049       2.114959
                          9       1    1dxy              1.154049       3.663216
                          9       1    1dxz              1.154049       3.663216
                          9       1    1dy2              1.154049       2.114959
                          9       1    1dyz              1.154049       3.663216
                          9       1    1dz2              1.154049       2.114959

                         10       1    1dx2              0.351129       0.263618
                         10       1    1dxy              0.351129       0.456600
                         10       1    1dxz              0.351129       0.456600
                         10       1    1dy2              0.351129       0.263618
                         10       1    1dyz              0.351129       0.456600
                         10       1    1dz2              0.351129       0.263618

                         11       1    1fx3              0.819312       0.940190
                         11       1    1fx2y             0.819312       2.102328
                         11       1    1fx2z             0.819312       2.102328
                         11       1    1fxy2             0.819312       2.102328
                         11       1    1fxyz             0.819312       3.641338
                         11       1    1fxz2             0.819312       2.102328
                         11       1    1fy3              0.819312       0.940190
                         11       1    1fy2z             0.819312       2.102328
                         11       1    1fyz2             0.819312       2.102328
                         11       1    1fz3              0.819312       0.940190

     AE Potential information for                                            ALL

       Description:                                       All-electron potential
                                          Krack, Parrinello, PCCP 2, 2105 (2000)

       Gaussian exponent of the core charge distribution:               4.109048
       Electronic configuration (s p d ...):                           4   2   0

  3. Atomic kind: H                                     Number of atoms:       2

     Orbital Basis Set                                                  TZP-ZORA

       Number of orbital shell sets:                                           6
       Number of orbital shells:                                               6
       Number of primitive Cartesian functions:                                8
       Number of Cartesian basis functions:                                   15
       Number of spherical basis functions:                                   14
       Norm type:                                                              2

       Normalised Cartesian orbitals:

                        Set   Shell   Orbital            Exponent    Coefficient

                          1       1    1s               34.877584       0.254499
                                                         5.233973       0.449285
                                                         1.185033       0.695456

                          2       1    1s                0.328339       0.309138

                          3       1    1s                0.110319       0.136426

                          4       1    1px               0.718844       0.943482
                          4       1    1py               0.718844       0.943482
                          4       1    1pz               0.718844       0.943482

                          5       1    1px               0.350000       0.383729
                          5       1    1py               0.350000       0.383729
                          5       1    1pz               0.350000       0.383729

                          6       1    1dx2              1.075060       1.868171
                          6       1    1dxy              1.075060       3.235768
                          6       1    1dxz              1.075060       3.235768
                          6       1    1dy2              1.075060       1.868171
                          6       1    1dyz              1.075060       3.235768
                          6       1    1dz2              1.075060       1.868171

       Atomic covalent radius [Angstrom]:                                  0.320

       Atomic van der Waals radius [Angstrom]:                             1.090

     The atoms of this atomic kind are PAW atoms (GAPW):
       Hard Gaussian function radius:                                      1.200
       Rho0 radius:                                                        1.200
       Maximum GTO radius used for PAW projector construction:            24.566

     GAPW Soft Basis Set                                           TZP-ZORA_soft

       Number of orbital shell sets:                                           6
       Number of orbital shells:                                               6
       Number of primitive Cartesian functions:                                7
       Number of Cartesian basis functions:                                   15
       Number of spherical basis functions:                                   14
       Norm type:                                                              2

       Normalised Cartesian orbitals:

                        Set   Shell   Orbital            Exponent    Coefficient

                          1       1    1s                5.233973       0.449285
                                                         1.185033       0.695456

                          2       1    1s                0.328339       0.309138

                          3       1    1s                0.110319       0.136426

                          4       1    1px               0.718844       0.943482
                          4       1    1py               0.718844       0.943482
                          4       1    1pz               0.718844       0.943482

                          5       1    1px               0.350000       0.383729
                          5       1    1py               0.350000       0.383729
                          5       1    1pz               0.350000       0.383729

                          6       1    1dx2              1.075060       1.868171
                          6       1    1dxy              1.075060       3.235768
                          6       1    1dxz              1.075060       3.235768
                          6       1    1dy2              1.075060       1.868171
                          6       1    1dyz              1.075060       3.235768
                          6       1    1dz2              1.075060       1.868171

     AE Potential information for                                            ALL

       Description:                                       All-electron potential
                                          Krack, Parrinello, PCCP 2, 2105 (2000)

       Gaussian exponent of the core charge distribution:              12.500000
       Electronic configuration (s p d ...):                           1   0   0


 MOLECULE KIND INFORMATION


 All atoms are their own molecule, skipping detailed information


 TOTAL NUMBERS AND MAXIMUM NUMBERS

  Total number of            - Atomic kinds:                                   3
                             - Atoms:                                          4
                             - Shell sets:                                    34
                             - Shells:                                        34
                             - Primitive Cartesian functions:                 54
                             - Cartesian basis functions:                    102
                             - Spherical basis functions:                     90

  Maximum angular momentum of the orbital basis functions:                     3


 MODULE QUICKSTEP: ATOMIC COORDINATES IN ANGSTROM

   Atom Kind Element         X             Y             Z       Z(eff)     Mass
      1    1 O     8     10.184868     10.913653      9.892701   8.0000  15.9994
      2    2 C     6     10.059528      9.709711      9.964854   6.0000  12.0107
      3    3 H     1      9.815132      9.086347      9.072018   1.0000   1.0079
      4    3 H     1     10.184006      9.159703     10.927982   1.0000   1.0079



 SCF PARAMETERS         Density guess:                                    ATOMIC
                        --------------------------------------------------------
                        max_scf:                                              20
                        max_scf_history:                                       0
                        max_diis:                                              4
                        --------------------------------------------------------
                        eps_scf:                                        1.00E-07
                        eps_scf_history:                                0.00E+00
                        eps_diis:                                       1.00E-01
                        eps_eigval:                                     1.00E-05
                        --------------------------------------------------------
                        level_shift [a.u.]:                             0.000000
                        --------------------------------------------------------
                        Outer loop SCF in use 
                        No variables optimised in outer loop
                        eps_scf                                         1.00E-07
                        max_scf                                               50
                        No outer loop optimization
                        step_size                                       5.00E-01

 PW_GRID| Information for grid number                                          1
 PW_GRID| Grid distributed over                                   128 processors
 PW_GRID| Real space group dimensions                                   128    1
 PW_GRID| the grid is blocked:                                                NO
 PW_GRID| Cutoff [a.u.]                                                   1200.0
 PW_GRID| spherical cutoff:                                                   NO
 PW_GRID|   Bounds   1           -300     299                Points:         600
 PW_GRID|   Bounds   2           -300     299                Points:         600
 PW_GRID|   Bounds   3           -300     299                Points:         600
 PW_GRID| Volume element (a.u.^3)  0.2499E-03     Volume (a.u.^3)     53986.6767
 PW_GRID| Grid span                                                    FULLSPACE
 PW_GRID|   Distribution                         Average         Max         Min
 PW_GRID|   G-Vectors                          1687500.0     1687800     1687200
 PW_GRID|   G-Rays                                2812.5        2813        2812
 PW_GRID|   Real Space Points                  1687500.0     1800000     1440000

 PW_GRID| Information for grid number                                          2
 PW_GRID| Number of the reference grid                                         1
 PW_GRID| Grid distributed over                                   128 processors
 PW_GRID| Real space group dimensions                                   128    1
 PW_GRID| the grid is blocked:                                                NO
 PW_GRID| Cutoff [a.u.]                                                    600.0
 PW_GRID| spherical cutoff:                                                   NO
 PW_GRID|   Bounds   1           -216     215                Points:         432
 PW_GRID|   Bounds   2           -216     215                Points:         432
 PW_GRID|   Bounds   3           -216     215                Points:         432
 PW_GRID| Volume element (a.u.^3)  0.6696E-03     Volume (a.u.^3)     53986.6767
 PW_GRID| Grid span                                                    FULLSPACE
 PW_GRID|   Distribution                         Average         Max         Min
 PW_GRID|   G-Vectors                           629856.0      630288      629424
 PW_GRID|   G-Rays                                1458.0        1459        1457
 PW_GRID|   Real Space Points                   629856.0      746496      559872

 PW_GRID| Information for grid number                                          3
 PW_GRID| Number of the reference grid                                         2
 PW_GRID| Grid distributed over                                   128 processors
 PW_GRID| Real space group dimensions                                   128    1
 PW_GRID| the grid is blocked:                                                NO
 PW_GRID| Cutoff [a.u.]                                                    200.0
 PW_GRID| spherical cutoff:                                                   NO
 PW_GRID|   Bounds   1           -121     121                Points:         243
 PW_GRID|   Bounds   2           -121     121                Points:         243
 PW_GRID|   Bounds   3           -121     121                Points:         243
 PW_GRID| Volume element (a.u.^3)  0.3762E-02     Volume (a.u.^3)     53986.6767
 PW_GRID| Grid span                                                    FULLSPACE
 PW_GRID|   Distribution                         Average         Max         Min
 PW_GRID|   G-Vectors                           112100.8      112266      111780
 PW_GRID|   G-Rays                                 461.3         462         460
 PW_GRID|   Real Space Points                   112100.8      118098       59049

 PW_GRID| Information for grid number                                          4
 PW_GRID| Number of the reference grid                                         2
 PW_GRID| Grid distributed over                                   128 processors
 PW_GRID| Real space group dimensions                                   128    1
 PW_GRID| the grid is blocked:                                                NO
 PW_GRID| Cutoff [a.u.]                                                     66.7
 PW_GRID| spherical cutoff:                                                   NO
 PW_GRID|   Bounds   1            -72      71                Points:         144
 PW_GRID|   Bounds   2            -72      71                Points:         144
 PW_GRID|   Bounds   3            -72      71                Points:         144
 PW_GRID| Volume element (a.u.^3)  0.1808E-01     Volume (a.u.^3)     53986.6767
 PW_GRID| Grid span                                                    FULLSPACE
 PW_GRID|   Distribution                         Average         Max         Min
 PW_GRID|   G-Vectors                            23328.0       23472       23184
 PW_GRID|   G-Rays                                 162.0         163         161
 PW_GRID|   Real Space Points                    23328.0       41472       20736

 PW_GRID| Information for grid number                                          5
 PW_GRID| Number of the reference grid                                         2
 PW_GRID| Grid distributed over                                   128 processors
 PW_GRID| Real space group dimensions                                     8   16
 PW_GRID| the grid is blocked:                                                NO
 PW_GRID| Cutoff [a.u.]                                                     22.2
 PW_GRID| spherical cutoff:                                                   NO
 PW_GRID|   Bounds   1            -40      40                Points:          81
 PW_GRID|   Bounds   2            -40      40                Points:          81
 PW_GRID|   Bounds   3            -40      40                Points:          81
 PW_GRID| Volume element (a.u.^3)  0.1016         Volume (a.u.^3)     53986.6767
 PW_GRID| Grid span                                                    FULLSPACE
 PW_GRID|   Distribution                         Average         Max         Min
 PW_GRID|   G-Vectors                             4151.9        4293        4050
 PW_GRID|   G-Rays                                  51.3          53          50
 PW_GRID|   Real Space Points                     4151.9        5346        4050

 PW_GRID| Information for grid number                                          6
 PW_GRID| Number of the reference grid                                         2
 PW_GRID| Grid distributed over                                   128 processors
 PW_GRID| Real space group dimensions                                     8   16
 PW_GRID| the grid is blocked:                                                NO
 PW_GRID| Cutoff [a.u.]                                                      7.4
 PW_GRID| spherical cutoff:                                                   NO
 PW_GRID|   Bounds   1            -24      23                Points:          48
 PW_GRID|   Bounds   2            -24      23                Points:          48
 PW_GRID|   Bounds   3            -24      23                Points:          48
 PW_GRID| Volume element (a.u.^3)  0.4882         Volume (a.u.^3)     53986.6767
 PW_GRID| Grid span                                                    FULLSPACE
 PW_GRID|   Distribution                         Average         Max         Min
 PW_GRID|   G-Vectors                              864.0         912         816
 PW_GRID|   G-Rays                                  18.0          19          17
 PW_GRID|   Real Space Points                      864.0         864         864

 POISSON| Solver                                          Martyna-Tuckerman (MT)
 POISSON| MT| Alpha                                                        7.000
 POISSON| MT| Relative cutoff                                                2.0
 POISSON| Periodicity                                                       NONE

 RS_GRID| Information for grid number                                          2
 RS_GRID|   Bounds   1           -216     215                Points:         432
 RS_GRID|   Bounds   2           -216     215                Points:         432
 RS_GRID|   Bounds   3           -216     215                Points:         432
 RS_GRID| Real space distribution over                                  4 groups
 RS_GRID| Real space distribution along direction                              1
 RS_GRID| Border size                                                         37
 RS_GRID| Real space distribution over                                  4 groups
 RS_GRID| Real space distribution along direction                              2
 RS_GRID| Border size                                                         37
 RS_GRID| Real space distribution over                                  8 groups
 RS_GRID| Real space distribution along direction                              3
 RS_GRID| Border size                                                         37
 RS_GRID|   Distribution                         Average         Max         Min
 RS_GRID|   Planes                                 182.0         182         182
 RS_GRID|   Distribution                         Average         Max         Min
 RS_GRID|   Planes                                 182.0         182         182
 RS_GRID|   Distribution                         Average         Max         Min
 RS_GRID|   Planes                                 128.0         128         128

 RS_GRID| Information for grid number                                          3
 RS_GRID|   Bounds   1           -121     121                Points:         243
 RS_GRID|   Bounds   2           -121     121                Points:         243
 RS_GRID|   Bounds   3           -121     121                Points:         243
 RS_GRID| Real space distribution over                                  4 groups
 RS_GRID| Real space distribution along direction                              1
 RS_GRID| Border size                                                         35
 RS_GRID| Real space distribution over                                  4 groups
 RS_GRID| Real space distribution along direction                              2
 RS_GRID| Border size                                                         35
 RS_GRID| Real space distribution over                                  8 groups
 RS_GRID| Real space distribution along direction                              3
 RS_GRID| Border size                                                         35
 RS_GRID|   Distribution                         Average         Max         Min
 RS_GRID|   Planes                                 130.8         131         130
 RS_GRID|   Distribution                         Average         Max         Min
 RS_GRID|   Planes                                 130.8         131         130
 RS_GRID|   Distribution                         Average         Max         Min
 RS_GRID|   Planes                                 100.4         101         100

 RS_GRID| Information for grid number                                          4
 RS_GRID|   Bounds   1            -72      71                Points:         144
 RS_GRID|   Bounds   2            -72      71                Points:         144
 RS_GRID|   Bounds   3            -72      71                Points:         144
 RS_GRID| Real space fully replicated
 RS_GRID| Group size                                                           1

 RS_GRID| Information for grid number                                          5
 RS_GRID|   Bounds   1            -40      40                Points:          81
 RS_GRID|   Bounds   2            -40      40                Points:          81
 RS_GRID|   Bounds   3            -40      40                Points:          81
 RS_GRID| Real space fully replicated
 RS_GRID| Group size                                                           1

 RS_GRID| Information for grid number                                          6
 RS_GRID|   Bounds   1            -24      23                Points:          48
 RS_GRID|   Bounds   2            -24      23                Points:          48
 RS_GRID|   Bounds   3            -24      23                Points:          48
 RS_GRID| Real space fully replicated
 RS_GRID| Group size                                                           1

  HFX_INFO| Replica ID:                                                        1
  HFX_INFO| FRACTION:                                               0.2500000000
  HFX_INFO| Interaction Potential:                                       COULOMB
  HFX_INFO| EPS_SCHWARZ:                                                 1.0E-10
  HFX_INFO| EPS_SCHWARZ_FORCES                                           1.0E-06
  HFX_INFO| EPS_STORAGE_SCALING:                                         1.0E+00
  HFX_INFO| NBINS:                                                            64
  HFX_INFO| BLOCK_SIZE:                                                        1
  HFX_INFO| Number of periodic shells considered:                           NONE
  HFX_INFO| Number of periodic cells considered:                            NONE


 Number of electrons:                                                         16
 Number of occupied orbitals:                                                  8
 Number of molecular orbitals:                                                 8

 Number of orbital functions:                                                 90
 Number of independent orbital functions:                                     90

 Extrapolation method: initial_guess

 Atomic guess: The first density matrix is obtained in terms of atomic orbitals
               and electronic configurations assigned to each atomic kind

 Guess for atomic kind: O

 Electronic structure
    Total number of core electrons                                          0.00
    Total number of valence electrons                                       8.00
    Total number of electrons                                               8.00
    Multiplicity                                                   not specified
    S      2.00  2.00
    P      4.00
 

 *******************************************************************************
                  Iteration          Convergence                     Energy [au]
 *******************************************************************************
                          1        0.764538                     -74.378835982846
                          2        0.781742                     -74.367957713988
                          3        0.438944E-01                 -74.463326452075
                          4        0.116982E-02                 -74.463634317732
                          5        0.957264E-04                 -74.463634520850
                          6        0.651993E-06                 -74.463634522214

 Energy components [Hartree]           Total Energy ::          -74.463634522214
                                        Band Energy ::          -40.571095093538
                                     Kinetic Energy ::           74.155219866844
                                   Potential Energy ::         -148.618854389058
                                      Virial (-V/T) ::            2.004159041750
                                        Core Energy ::         -103.055981651543
                                          XC Energy ::           -7.773055868105
                                     Coulomb Energy ::           36.365402997434

 Orbital energies  State     L     Occupation   Energy[a.u.]          Energy[eV]

                       1     0          2.000     -18.752765         -510.288677
                       2     0          2.000      -0.865621          -23.554745
 
                       1     1          4.000      -0.333581           -9.077199
 

 Total Electron Density at R=0:                                       297.797155

 Guess for atomic kind: C

 Electronic structure
    Total number of core electrons                                          0.00
    Total number of valence electrons                                       6.00
    Total number of electrons                                               6.00
    Multiplicity                                                   not specified
    S      2.00  2.00
    P      2.00
 

 *******************************************************************************
                  Iteration          Convergence                     Energy [au]
 *******************************************************************************
                          1        0.135648                     -37.407840427390
                          2        0.104922                     -37.413098086831
                          3        0.160634E-02                 -37.420888704805
                          4        0.162661E-03                 -37.420890654531
                          5        0.418364E-05                 -37.420890673186
                          6        0.123209E-06                 -37.420890673200

 Energy components [Hartree]           Total Energy ::          -37.420890673200
                                        Band Energy ::          -21.269097778202
                                     Kinetic Energy ::           37.198541801893
                                   Potential Energy ::          -74.619432475094
                                      Virial (-V/T) ::            2.005977354502
                                        Core Energy ::          -50.339304428670
                                          XC Energy ::           -4.732545570193
                                     Coulomb Energy ::           17.650959325662

 Orbital energies  State     L     Occupation   Energy[a.u.]          Energy[eV]

                       1     0          2.000      -9.943705         -270.581971
                       2     0          2.000      -0.496043          -13.498008
 
                       1     1          2.000      -0.194801           -5.300814
 

 Total Electron Density at R=0:                                       121.299391

 Guess for atomic kind: H

 Electronic structure
    Total number of core electrons                                          0.00
    Total number of valence electrons                                       1.00
    Total number of electrons                                               1.00
    Multiplicity                                                   not specified
    S      1.00
 

 *******************************************************************************
                  Iteration          Convergence                     Energy [au]
 *******************************************************************************
                          1        0.901344E-02                  -0.444560434385
                          2        0.112810E-02                  -0.444629377369
                          3        0.824978E-04                  -0.444631123607
                          4        0.531592E-07                  -0.444631130415

 Energy components [Hartree]           Total Energy ::           -0.444631130415
                                        Band Energy ::           -0.229051818617
                                     Kinetic Energy ::            0.431531450645
                                   Potential Energy ::           -0.876162581060
                                      Virial (-V/T) ::            2.030356257348
                                        Core Energy ::           -0.496316890851
                                          XC Energy ::           -0.235228547242
                                     Coulomb Energy ::            0.286914307678

 Orbital energies  State     L     Occupation   Energy[a.u.]          Energy[eV]

                       1     0          1.000      -0.229052           -6.232817
 

 Total Electron Density at R=0:                                         0.248567
 Re-scaling the density matrix to get the right number of electrons
                  # Electrons              Trace(P)               Scaling factor
                           16                16.000                        1.000


 SCF WAVEFUNCTION OPTIMIZATION

  ----------------------------------- OT ---------------------------------------
  Minimizer      : DIIS                : direct inversion
                                         in the iterative subspace
                                         using   7 DIIS vectors
                                         safer DIIS on
  Preconditioner : FULL_ALL            : diagonalization, state selective
  Precond_solver : DEFAULT
  stepsize       :    0.15000000                  energy_gap     :    0.08000000
  eps_taylor     :   0.10000E-15                  max_taylor     :             4
  ----------------------------------- OT ---------------------------------------

  Step     Update method      Time    Convergence         Total energy    Change
  ------------------------------------------------------------------------------

  HFX_MEM_INFO| Est. max. program size before HFX [MiB]:                     932
  HFX_MEM_INFO| Number of cart. primitive ERI's calculated:             76320338
  HFX_MEM_INFO| Number of sph. ERI's calculated:                        15368070
  HFX_MEM_INFO| Number of sph. ERI's stored in-core:                    15368070
  HFX_MEM_INFO| Number of sph. ERI's stored on disk:                           0
  HFX_MEM_INFO| Number of sph. ERI's calculated on the fly:                    0
  HFX_MEM_INFO| Total memory consumption ERI's RAM [MiB]:                     48
  HFX_MEM_INFO| Whereof max-vals [MiB]:                                        2
  HFX_MEM_INFO| Total compression factor ERI's RAM:                         2.46
  HFX_MEM_INFO| Total memory consumption ERI's disk [MiB]:                     0
  HFX_MEM_INFO| Total compression factor ERI's disk:                        0.00
  HFX_MEM_INFO| Size of density/Fock matrix [MiB]:                             0
  HFX_MEM_INFO| Size of buffers [MiB]:                                         0
  HFX_MEM_INFO| Est. max. program size after HFX  [MiB]:                     937

     1 OT DIIS     0.15E+00   99.6     0.21090445      -110.2290106288 -1.10E+02
     2 OT DIIS     0.15E+00   57.8     0.08360049      -113.3967672595 -3.17E+00
     3 OT DIIS     0.15E+00   55.3     0.03693387      -113.9781976423 -5.81E-01
     4 OT DIIS     0.15E+00   52.1     0.02591517      -114.0907091478 -1.13E-01
     5 OT DIIS     0.15E+00   52.6     0.01917629      -114.2134018735 -1.23E-01
     6 OT DIIS     0.15E+00   54.9     0.01416327      -114.2915033517 -7.81E-02
     7 OT DIIS     0.15E+00   53.2     0.01115077      -114.3427305904 -5.12E-02
     8 OT DIIS     0.15E+00   51.9     0.00790448      -114.3712738347 -2.85E-02
     9 OT DIIS     0.15E+00   51.5     0.00785469      -114.3831821176 -1.19E-02
    10 OT DIIS     0.15E+00   51.9     0.00403384      -114.4032434599 -2.01E-02
    11 OT DIIS     0.15E+00   57.8     0.00263127      -114.4103639301 -7.12E-03
    12 OT DIIS     0.15E+00   53.7     0.00237440      -114.4121920956 -1.83E-03
    13 OT DIIS     0.15E+00   54.5     0.00147606      -114.4142456304 -2.05E-03
    14 OT DIIS     0.15E+00   53.6     0.00110790      -114.4146673402 -4.22E-04
    15 OT DIIS     0.15E+00   52.9     0.00069650      -114.4151161584 -4.49E-04
    16 OT DIIS     0.15E+00   52.7     0.00052568      -114.4152486284 -1.32E-04
    17 OT DIIS     0.15E+00   53.2     0.00033231      -114.4153525699 -1.04E-04
    18 OT DIIS     0.15E+00   53.6     0.00018939      -114.4153993644 -4.68E-05
    19 OT DIIS     0.15E+00   51.9     0.00012043      -114.4154110911 -1.17E-05
    20 OT DIIS     0.15E+00   53.7     0.00005542      -114.4154140696 -2.98E-06

  Leaving inner SCF loop after reaching    20 steps.


  Electronic density on regular grids:        -11.6370493949        4.3629506051
  Core density on regular grids:               16.0000000000       -0.0000000000
  Hard and soft densities (Lebedev):          -23.1918167097      -18.8288669965
  Total Rho_soft + Rho1_hard - Rho1_soft      -15.9999991081
  Total charge density (r-space):               0.0000008919
  Total Rho_soft + Rho0_soft (g-space):         0.0000008488

  Overlap energy of the core charge distribution:               0.00000266530266
  Self energy of the core charge distribution:               -104.84381476465852
  Core Hamiltonian energy:                                    -12.86060903866719
  Hartree energy:                                              31.06627881774892
  Exchange-correlation energy:                                 -4.22385138240338
  Hartree-Fock Exchange energy:                                -3.51060646201346

  GAPW| Exc from hard and soft atomic rho1:                    -6.82454426956227
  GAPW| local Eh = 1 center integrals:                        -13.21826963531660

  Total energy:                                              -114.41541406956983

  outer SCF iter =    1 RMS gradient =   0.55E-04 energy =       -114.4154140696

  ----------------------------------- OT ---------------------------------------
  Minimizer      : DIIS                : direct inversion
                                         in the iterative subspace
                                         using   7 DIIS vectors
                                         safer DIIS on
  Preconditioner : FULL_ALL            : diagonalization, state selective
  Precond_solver : DEFAULT
  stepsize       :    0.15000000                  energy_gap     :    0.08000000
  eps_taylor     :   0.10000E-15                  max_taylor     :             4
  ----------------------------------- OT ---------------------------------------

  Step     Update method      Time    Convergence         Total energy    Change
  ------------------------------------------------------------------------------
     1 OT DIIS     0.15E+00  145.4     0.00007108      -114.4154145443 -4.75E-07
     2 OT DIIS     0.15E+00   42.3     0.00003861      -114.4154149259 -3.82E-07
     3 OT DIIS     0.15E+00   42.6     0.00002639      -114.4154150323 -1.06E-07
     4 OT DIIS     0.15E+00   42.8     0.00000392      -114.4154150712 -3.89E-08
     5 OT DIIS     0.15E+00   46.0     0.00000126      -114.4154150730 -1.82E-09
     6 OT DIIS     0.15E+00   43.4     0.00000030      -114.4154150732 -2.06E-10
     7 OT DIIS     0.15E+00   41.5     0.00000008      -114.4154150732 -1.57E-11

  *** SCF run converged in     7 steps ***


  Electronic density on regular grids:        -11.6370491188        4.3629508812
  Core density on regular grids:               16.0000000000       -0.0000000000
  Hard and soft densities (Lebedev):          -23.1912657900      -18.8283158005
  Total Rho_soft + Rho1_hard - Rho1_soft      -15.9999991082
  Total charge density (r-space):               0.0000008918
  Total Rho_soft + Rho0_soft (g-space):         0.0000008487

  Overlap energy of the core charge distribution:               0.00000266530266
  Self energy of the core charge distribution:               -104.84381476465852
  Core Hamiltonian energy:                                    -12.86053172373807
  Hartree energy:                                              31.06615533272547
  Exchange-correlation energy:                                 -4.22381185060354
  Hartree-Fock Exchange energy:                                -3.51059333352270

  GAPW| Exc from hard and soft atomic rho1:                    -6.82455842602192
  GAPW| local Eh = 1 center integrals:                        -13.21826297272774

  Total energy:                                              -114.41541507324436

  outer SCF iter =    2 RMS gradient =   0.75E-07 energy =       -114.4154150732
  outer SCF loop converged in   2 iterations or   27 steps


 !-----------------------------------------------------------------------------!
                     Mulliken Population Analysis

 #  Atom  Element  Kind  Atomic population                           Net charge
       1     O        1          8.230498                             -0.230498
       2     C        2          5.833231                              0.166769
       3     H        3          0.968131                              0.031869
       4     H        3          0.968141                              0.031859
 # Total charge                             16.000000                  0.000000

 !-----------------------------------------------------------------------------!

 !-----------------------------------------------------------------------------!
                           Hirshfeld Charges

  #Atom  Element  Kind  Ref Charge     Population                    Net charge
      1       O      1       8.000          8.372                        -0.372
      2       C      2       6.000          6.585                        -0.585
      3       H      3       1.000          0.519                         0.481
      4       H      3       1.000          0.519                         0.481

  Total Charge                                                            0.005
 !-----------------------------------------------------------------------------!

 *******************************************************************************
 **                                                                           **
 **         ######## #######   #######   ######## #######  ########           **
 **            ##    ##     ## ##     ## ##       ##   ##     ##              **
 **            ##    ##     ## ##     ## ######   #######     ##              **
 **            ##    ##     ## ##     ## ##       ##          ##              **
 **            ##    #######   #######   ##       ##          ##              **
 **                                                                           **
 *******************************************************************************
 KERNEL|                                                                    FULL
 FUNCTIONAL| PBE:
 FUNCTIONAL| J.P.Perdew, K.Burke, M.Ernzerhof, Phys. Rev. Letter, vol. 77, n 18,
 FUNCTIONAL|  pp. 3865-3868, (1996)sx=0.750sc=1.000{spin unpolarized}           
 KERNEL|                                                          Exact Exchange
 KERNEL| Spin symmetry of excitations                                    Triplet
 TDDFPT| Number of states calculated                                          10
 TDDFPT| Number of Davidson iterations                                        20
 TDDFPT| Davidson iteration convergence                                0.100E-07
 TDDFPT| Max. number of Krylov space vectors                                  60
 TDDFPT| Molecular Orbitals:        Spin       AOs       Occ      Virt     Total
 TDDFPT|                               1        90         8        82        90

 *******************************************************************************
 **                                                                           **
 **                            ####### ####### #######                        **
 **                        #   ##      ##   ## ##                             **
 **                       ###  ######  ##   ## ##                             **
 **                        #       ##  ##   ## ##                             **
 **                            ######  ####### #######                        **
 **                 Based on the xas module from Augustin Bussy               **
 *******************************************************************************
 
 -------------------------------------------------------------------------------
 -                      TDDFPT TRIPLET ENERGIES                                 -
 -------------------------------------------------------------------------------
 
 -------------------------------------------------------------------------------
 -                            TDDFPT Initial Guess                             -
 -------------------------------------------------------------------------------
          State         Occupied      ->      Virtual          Excitation
          number         orbital              orbital          energy (eV)
 -------------------------------------------------------------------------------
             1                8                    9              6.48648
             2                8                   10              9.54566
             3                7                    9             10.02116
             4                8                   11             11.22837
             5                6                    9             11.46742
             6                8                   12             12.04458
             7                5                    9             12.59815
             8                7                   10             13.08034
             9                6                   10             14.52659
            10                7                   11             14.76305

      Number of active states:                                        656
 -------------------------------------------------------------------------------
 
 -------------------------------------------------------------------------------
 -                      TDDFPT WAVEFUNCTION OPTIMIZATION                       -
 -------------------------------------------------------------------------------

          Step            Time         Convergence           Conv. states
 -------------------------------------------------------------------------------

    State    Exc. energy (eV)      Convergence (eV)
        1       3.3278040            -3.1587E+00
        2       5.8817148            -3.6639E+00
        3       7.6801169            -2.3410E+00
        4       8.0140479            -3.2143E+00
        5       9.2863964            -2.1810E+00
        6       9.4177903            -2.6268E+00
        7       9.8064631            -2.7917E+00
        8      11.3615858            -1.7187E+00
        9      12.8417059            -1.6849E+00
       10      13.0061627            -1.7569E+00
 
             1           480.1          1.3465E-01                      0

    State    Exc. energy (eV)      Convergence (eV)
        1       3.2272576            -1.0055E-01
        2       5.6609532            -2.2076E-01
        3       7.5387315            -1.4139E-01
        4       7.8581282            -1.5592E-01
        5       9.1351446            -1.5125E-01
        6       9.2779422            -1.3985E-01
        7       9.6962242            -1.1024E-01
        8      11.2776379            -8.3948E-02
        9      12.7017237            -1.3998E-01
       10      12.9207602            -8.5402E-02
 
             2           469.1          8.1128E-03                      0

    State    Exc. energy (eV)      Convergence (eV)
        1       3.2271565            -1.0111E-04
        2       5.6598917            -1.0615E-03
        3       7.5361331            -2.5984E-03
        4       7.8573779            -7.5030E-04
        5       9.1313853            -3.7592E-03
        6       9.2775174            -4.2486E-04
        7       9.6955019            -7.2236E-04
        8      11.2571774            -2.0460E-02
        9      12.6927596            -8.9642E-03
       10      12.9138362            -6.9240E-03
 
             3           460.2          7.5191E-04                      0

    State    Exc. energy (eV)      Convergence (eV)
        1       3.2271563            -2.0159E-07
        2       5.6598805            -1.1201E-05
        3       7.5361163            -1.6813E-05
        4       7.8573654            -1.2496E-05
        5       9.1313609            -2.4469E-05
        6       9.2775143            -3.0233E-06
        7       9.6954903            -1.1552E-05
        8      11.2561496            -1.0279E-03
        9      12.6923920            -3.6754E-04
       10      12.8308192            -8.3017E-02
 
             4           468.9          3.0508E-03                      1

    State    Exc. energy (eV)      Convergence (eV)
        1       3.2271563            -3.1316E-10
        2       5.6598804            -4.0978E-08
        3       7.5361161            -1.7041E-07
        4       7.8573653            -9.9563E-08
        5       9.1313607            -1.5524E-07
        6       9.2775143            -9.3251E-09
        7       9.6954902            -1.7365E-07
        8      11.2561421            -7.4644E-06
        9      12.6923832            -8.8028E-06
       10      12.8098060            -2.1013E-02
 
             5           483.8          7.7222E-04                      7

    State    Exc. energy (eV)      Convergence (eV)
        1       3.2271563            -3.7235E-13
        2       5.6598804            -2.3932E-10
        3       7.5361161            -1.1026E-09
        4       7.8573653            -5.0644E-10
        5       9.1313607            -1.9921E-09
        6       9.2775143            -2.2963E-11
        7       9.6954902            -1.5706E-09
        8      11.2561420            -7.8167E-08
        9      12.6923829            -2.9810E-07
       10      12.8095233            -2.8263E-04
 
             6           407.4          1.0386E-05                      8
 ------------------------- Restart Davidson iterations -------------------------

    State    Exc. energy (eV)      Convergence (eV)
        1       3.2271563            -2.2658E-15
        2       5.6598804            -3.0211E-15
        3       7.5361161            -3.9274E-14
        4       7.8573653            -7.5527E-15
        5       9.1313607             0.0000E+00
        6       9.2775143             1.5105E-15
        7       9.6954902             6.0421E-15
        8      11.2561420             6.6464E-14
[...]
 flops    31 x     8 x    14             29803648       0.0%    100.0%      0.0%
 flops    14 x     8 x    31             31581312       0.0%    100.0%      0.0%
 flops    31 x     8 x    31             67931168       0.0%    100.0%      0.0%
 flops inhomo. stacks                           0       0.0%      0.0%      0.0%
 flops total                       206.763936E+06       0.0%    100.0%      0.0%
 flops max/rank                     97.840224E+06       0.0%    100.0%      0.0%
 matmuls inhomo. stacks                         0       0.0%      0.0%      0.0%
 matmuls total                              30523       0.0%    100.0%      0.0%
 number of processed stacks                 24275       0.0%    100.0%      0.0%
 average stack size                                     0.0       1.3       0.0
 marketing flops                   226.875952E+06
 -------------------------------------------------------------------------------
 # multiplications                           1813
 max memory usage/rank               1.520828E+09
 # max total images/rank                        2
 # max 3D layers                                1
 # MPI messages exchanged                 6729856
 MPI messages size (bytes):
  total size                         1.132145E+09
  min size                           0.000000E+00
  max size                          15.376000E+03
  average size                     168.227203E+00
 MPI breakdown and total messages size (bytes):
             size <=      128             6453528                        0
       128 < size <=     8192              245878                663945776
      8192 < size <=    32768               30450                468199200
     32768 < size <=   131072                   0                        0
    131072 < size <=  4194304                   0                        0
   4194304 < size <= 16777216                   0                        0
  16777216 < size                               0                        0
 -------------------------------------------------------------------------------

 *** WARNING in dbcsr_mm.F:291 :: Using a non-square number of MPI ranks ***
 *** might lead to poor performance. Used ranks: 128 Suggested: 121 256  ***

 -------------------------------------------------------------------------------
 -                                                                             -
 -                      DBCSR MESSAGE PASSING PERFORMANCE                      -
 -                                                                             -
 -------------------------------------------------------------------------------
 ROUTINE             CALLS      AVE VOLUME [Bytes]
 MP_Bcast               24                     12.
 MP_Allreduce         7827                      8.
 MP_Alltoall         28776                  36839.
 MP_ISend           113172                    630.
 MP_IRecv           112376                    486.
 -------------------------------------------------------------------------------

 -------------------------------------------------------------------------------
 -                                                                             -
 -                                DBM STATISTICS                               -
 -                                                                             -
 -------------------------------------------------------------------------------
    M  x    N  x    K                                          COUNT     PERCENT
 -------------------------------------------------------------------------------

 -------------------------------------------------------------------------------
 -                                                                             -
 -                                GRID STATISTICS                              -
 -                                                                             -
 -------------------------------------------------------------------------------
 LP    KERNEL             BACKEND                              COUNT     PERCENT
 2     collocate general  CPU                                  50688      14.62%
 2     integrate general  CPU                                  49664      14.32%
 1     collocate ortho    CPU                                  35020      10.10%
 1     integrate ortho    CPU                                  34402       9.92%
 2     collocate ortho    CPU                                  32130       9.27%
 2     integrate ortho    CPU                                  31563       9.10%
 0     collocate ortho    CPU                                  23970       6.91%
 0     integrate ortho    CPU                                  23547       6.79%
 3     collocate ortho    CPU                                  20570       5.93%
 3     integrate ortho    CPU                                  20207       5.83%
 4     collocate ortho    CPU                                   8840       2.55%
 4     integrate ortho    CPU                                   8684       2.50%
 5     collocate ortho    CPU                                   2720       0.78%
 5     integrate ortho    CPU                                   2672       0.77%
 0     collocate general  CPU                                    512       0.15%
 0     integrate general  CPU                                    512       0.15%
 6     collocate ortho    CPU                                    510       0.15%
 6     integrate ortho    CPU                                    501       0.14%
 -------------------------------------------------------------------------------

 MEMORY| Estimated peak process memory [MiB]                                1454

 -------------------------------------------------------------------------------
 ----                             MULTIGRID INFO                            ----
 -------------------------------------------------------------------------------
 count for grid        1:         925011          cutoff [a.u.]          600.00
 count for grid        2:         224927          cutoff [a.u.]          200.00
 count for grid        3:         191657          cutoff [a.u.]           66.67
 count for grid        4:          41021          cutoff [a.u.]           22.22
 count for grid        5:           2560          cutoff [a.u.]            7.41
 total gridlevel count  :        1385176

 -------------------------------------------------------------------------------
 -                                                                             -
 -                         MESSAGE PASSING PERFORMANCE                         -
 -                                                                             -
 -------------------------------------------------------------------------------

 ROUTINE             CALLS      AVE VOLUME [Bytes]
 MP_Group                6
 MP_Bcast             1947                 278410.
 MP_Allreduce         8833                   8261.
 MP_Sync              1624
 MP_Alltoall          4472               18489314.
 MP_SendRecv         64770                 127152.
 MP_ISendRecv       141859                  65484.
 MP_Wait            182126
 MP_comm_split          81
 MP_ISend            33810                 670036.
 MP_IRecv            36442                 621594.
 -------------------------------------------------------------------------------


 -------------------------------------------------------------------------------
 -                                                                             -
 -                           R E F E R E N C E S                               -
 -                                                                             -
 -------------------------------------------------------------------------------
 
 CP2K version 2024.1 (Development Version), the CP2K developers group (2024).
 CP2K is freely available from https://www.cp2k.org/ .

 Kuehne,Thomas D.; Iannuzzi,Marcella; Del Ben,Mauro;
 Rybkin,Vladimir V.; Seewald,Patrick; Stein,Frederick; Laino,Teodoro;
 Khaliullin,Rustam Z.; Schuett,Ole; Schiffmann,Florian; Golze,Dorothea;
 Wilhelm,Jan; Chulkov,Sergey; Bani-Hashemian,Mohammad Hossein;
 Weber,Valery; Borstnik,Urban; Taillefumier,Mathieu;
 Jakobovits,Alice Shoshana; Lazzaro,Alfio; Pabst,Hans; Mueller,Tiziano;
 Schade,Robert; Guidon,Manuel; Andermatt,Samuel; Holmberg,Nico;
 Schenter,Gregory K.; Hehn,Anna; Bussy,Augustin; Belleflamme,Fabian;
 Tabacchi,Gloria; Gloess,Andreas; Lass,Michael; Bethune,Iain;
 Mundy,Christopher J.; Plessl,Christian; Watkins,Matt;
 VandeVondele,Joost; Krack,Matthias; Hutter,Juerg. 
 The Journal of Chemical Physics, 152 (19), (2020). 
 CP2K: An electronic structure and molecular dynamics software package -
 Quickstep: Efficient and accurate electronic structure calculations.
 https://doi.org/10.1063/5.0007045

 Schuett, Ole; Messmer, Peter; Hutter, Juerg; VandeVondele, Joost. 
 Electronic Structure Calculations on Graphics Processing Units, John
 Wiley & Sons, Ltd, 173-190 (2016). 
 GPU-Accelerated Sparse Matrix-Matrix Multiplication for
 Linear Scaling Density Functional Theory.
 https://doi.org/10.1002/9781118670712.ch8

 Heinecke, A; Henry, G; Hutchinson, M; Pabst, H. 
 Proceedings of Intl. Supercomputing Conference, 981-991 (2016). 
 LIBXSMM: Accelerating Small Matrix Multiplications
 by Runtime Code Generation.
 https://doi.org/10.1109/SC.2016.83

 Borstnik, U; VandeVondele, J; Weber, V; Hutter, J. 
 PARALLEL COMPUTING, 40 (5-6), 47-58 (2014). 
 Sparse matrix multiplication: The distributed block-compressed sparse
 row library.
 https://doi.org/10.1016/j.parco.2014.03.012

 Hutter, J; Iannuzzi, M; Schiffmann, F; VandeVondele, J. 
 WIREs Comput Mol Sci., 4 (1), 15-25 (2014). 
 CP2K: atomistic simulations of condensed matter systems.
 https://doi.org/10.1002/wcms.1159

 Guidon, M; Hutter, J; VandeVondele, J. 
 JOURNAL OF CHEMICAL THEORY AND COMPUTATION, 5 (11), 3010-3021 (2009). 
 Robust Periodic Hartree-Fock Exchange for Large-Scale Simulations Using
 Gaussian Basis Sets.
 https://doi.org/10.1021/ct900494g

 Guidon, M; Schiffmann, F; Hutter, J; VandeVondele, J. 
 JOURNAL OF CHEMICAL PHYSICS, 128 (21), 214104 (2008). 
 Ab initio molecular dynamics using hybrid density functionals.
 https://doi.org/10.1063/1.2931945

 Frigo, M; Johnson, SG. 
 PROCEEDINGS OF THE IEEE, 93 (2), 216-231 (2005). 
 The design and implementation of FFTW3.
 https://doi.org/10.1109/JPROC.2004.840301

 Iannuzzi, M; Chassaing, T; Wallman, T; Hutter, J. 
 CHIMIA, 59 (7-8), 499-503 (2005). 
 Ground and excited state density functional calculations with the
 Gaussian and augmented-plane-wave method.
 https://doi.org/10.2533/000942905777676164

 VandeVondele, J; Hutter, J. 
 JOURNAL OF CHEMICAL PHYSICS, 118 (10), 4365-4369 (2003). 
 An efficient orbital transformation method for electronic structure
 calculations.
 https://doi.org/10.1063/1.1543154

 Martin,Richard L.. 
 The Journal of Chemical Physics, 118 (11), 4775-4777 (2003). 
 Natural transition orbitals.
 https://doi.org/10.1063/1.1558471

 Lippert, G; Hutter, J; Parrinello, M. 
 THEORETICAL CHEMISTRY ACCOUNTS, 103 (2), 124-140 (1999). 
 The Gaussian and augmented-plane-wave density functional method for ab
 initio molecular dynamics simulations.
 https://doi.org/10.1007/s002140050523

 Krack, M; Parrinello, M. 
 PHYSICAL CHEMISTRY CHEMICAL PHYSICS, 2 (10), 2105-2112 (2000). 
 All-electron ab-initio molecular dynamics.
 https://doi.org/10.1039/b001167n

 Martyna, GJ; Tuckerman, ME. 
 JOURNAL OF CHEMICAL PHYSICS, 110 (6), 2810-2821 (1999). 
 A reciprocal space based method for treating long range interactions in
 ab initio and force-field-based calculations in clusters.
 https://doi.org/10.1063/1.477923

 Perdew, JP; Burke, K; Ernzerhof, M. 
 PHYSICAL REVIEW LETTERS, 77 (18), 3865-3868 (1996). 
 Generalized gradient approximation made simple.
 https://doi.org/10.1103/PhysRevLett.77.3865


 -------------------------------------------------------------------------------
 -                                                                             -
 -                                T I M I N G                                  -
 -                                                                             -
 -------------------------------------------------------------------------------
 SUBROUTINE                       CALLS  ASD         SELF TIME        TOTAL TIME
                                MAXIMUM       AVERAGE  MAXIMUM  AVERAGE  MAXIMUM
 CP2K                                 1  1.0    4.614    4.754 8802.653 8802.698
 qs_energies                          1  2.0    0.036    0.142 8739.550 8739.595
 qs_energies_properties               1  3.0    0.002    0.036 7232.841 7232.910
 tddfpt                               1  4.0    0.009    0.062 7232.839 7232.910
 tddfpt_soc_energies                  1  5.0    0.001    0.033 7202.542 7202.587
 tddfpt_energies                      2  6.0    0.002    0.035 7123.161 7123.228
 tddfpt_davidson_solver               4  7.0    0.030    0.213 6452.916 6452.979
 tddfpt_compute_Aop_evects           14  8.0    0.000    0.000 5697.037 5697.248
 fhxc_kernel                         14  9.0    0.028    0.078 3671.832 3672.067
 mp_waitall_1                    348740 14.3 2257.913 2317.024 2257.913 2317.024
 tddfpt_apply_hfx                    14  9.0    0.005    0.027 1735.082 1735.154
 cp_dbcsr_sm_fm_multiply            886  9.5    0.017    0.054 1695.010 1707.505
 qs_rho_update_rho_low              170  9.2    0.019    0.069 1636.151 1639.336
 calculate_rho_elec                 170 10.2    0.992    1.601 1508.579 1510.739
 scf_env_do_scf                       1  3.0    0.002    0.098 1481.745 1481.775
 density_rs2pw                      170 11.2    0.018    0.050 1473.927 1478.907
 integrate_v_rspace                 167  9.8    0.007    0.031 1438.084 1441.486
 potential_pw2rs                    167 10.8    0.071    0.138 1389.130 1397.618
 dbcsr_complete_redistribute       2874 11.5    0.099    0.267 1367.788 1394.509
 scf_env_do_scf_inner_loop           27  4.0    0.024    0.904 1339.656 1339.782
 transfer_pw2rs                     933 11.8    0.012    0.047 1264.836 1273.893
 transfer_rs2pw                     950 12.1    0.015    0.049 1253.770 1263.379
 integrate_four_center              307 10.8    0.105    0.184 1219.736 1223.115
 mp_sendrecv_dv                   64770 14.2 1106.402 1136.060 1106.402 1136.060
 tddft_hfx_matrix                   280 10.0    0.015    0.047 1058.756 1062.188
 copy_dbcsr_to_fm                   962 10.4    0.017    0.088  981.393  995.373
 dbcsr_multiply_generic            1813 10.9    0.096    0.209  938.913  959.320
 pw_transfer                       3736 12.1    0.510    0.667  860.651  880.039
 fft_wrap_pw1pw2                   3443 13.2    0.049    0.105  858.797  878.185
 fft3d_ps                          3443 15.2  105.290  118.615  786.845  808.161
 copy_fm_to_dbcsr                  1908 10.6    0.008    0.021  641.521  668.607
 mp_alltoall_d11v                 11941 12.7  611.600  655.973  611.600  655.973
 fft_wrap_pw1pw2_600               2094 14.3   10.086   11.290  633.567  653.068
 cp_fm_syevd                         81  9.2    0.004    0.035  627.842  629.164
 integrate_four_center_getP         307 11.8    0.090    0.677  626.509  627.651
 mp_alltoall_z22v                  3443 17.2  555.202  588.963  555.202  588.963
 tddfpt_print_nto_analysis            2  7.0    0.016    0.063  582.353  582.672
 qs_scf_new_mos                      27  5.0    0.000    0.012  559.771  560.198
 qs_scf_loop_do_ot                   27  6.0    0.000    0.000  559.770  560.198
 qs_ks_update_qs_env                 29  5.0    0.001    0.013  557.123  558.127
 rebuild_ks_matrix                   27  6.0    0.003    0.035  553.798  554.867
 qs_ks_build_kohn_sham_matrix        27  7.0    0.030    0.115  553.794  554.866
 integrate_four_center_dist_KS      307 11.8    0.092    0.806  552.801  553.185
 ot_scf_mini                         27  7.0    0.001    0.013  542.596  543.044
 cp_fm_redistribute_end              81 10.2  285.163  519.275  291.278  522.586
 transfer_pw2rs_70                  167 12.8    7.975   19.925  480.380  513.250
 tddfpt_orthonormalize_psi1_psi      16  7.9    0.007    0.041  505.477  508.238
 mp_alltoall_i11v                  9678 12.5  495.591  496.698  495.591  496.698
 transfer_rs2pw_70                  170 13.2    5.505   12.233  464.361  486.961
 cp_fm_syevd_base                    81 10.2  226.908  460.540  226.908  460.540
 tddfpt_apply_xc_analytic           140 10.0    2.187    3.069  455.918  458.798
 mp_sum_l                          7541 11.3  425.303  443.719  425.303  443.719
 xc_pw_derive                      1221 11.7    0.036    0.095  395.636  405.685
 transfer_pw2rs_30                  167 12.8    0.530    1.801  373.528  404.430
 transfer_rs2pw_30                  170 13.2    0.586    1.380  376.156  404.227
 cp_fm_geeig                         20  8.0    0.008    0.038  389.636  389.924
 cp_dbcsr_sm_fm_multiply_core       886 10.5    0.003    0.023  356.000  374.552
 yz_to_x                           1281 16.6   11.706   13.364  287.392  312.957
 mp_cart_sub                       1932 12.4  299.800  301.082  299.800  301.082
 tddfpt_apply_energy_diff            14  9.0    0.001    0.001  290.123  290.209
 ot_mini                             27  8.0    0.009    0.038  285.622  286.307
 mp_sync                           1624 12.5  239.387  285.273  239.387  285.273
 transfer_pw2rs_10                  167 12.8    0.189    1.629  271.755  282.423
 transfer_rs2pw_10                  170 13.2    0.195    1.861  272.171  281.818
 cp_dbcsr_plus_fm_fm_t_native       141 10.0    0.005    0.037  276.054  278.047
 multiply_cannon                   1813 11.9    0.141    0.222  252.881  274.056
 x_to_yz                           1488 15.9   19.422   29.249  265.332  272.448
 dbcsr_desymmetrize_deep            963 11.4    0.025    0.105  256.769  271.987
 mp_sum_dv                         4847 10.4  262.360  268.882  262.360  268.882
 xc_calc_2nd_deriv_analytical       700 11.1   57.743   86.483  257.695  258.881
 sum_up_and_integrate                27  8.0    0.002    0.024  246.681  247.278
 mp_waitany                       33810 13.8  177.750  241.357  177.750  241.357
 qs_ot_get_derivative                27  9.0    0.004    0.036  235.695  236.096
 xc_pw_divergence                   167 11.7    0.014    0.035  224.836  234.314
 cp_fm_trace_a1b1t1_aa             3880  9.0    0.010    0.023  223.786  226.976
 mp_alltoall_i22                   3868 12.5  194.685  223.357  194.685  223.357
 qs_ot_get_p                         29  7.9    0.002    0.044  211.638  211.895
 make_m2s                          3626 11.9    0.048    0.094  185.323  206.781
 make_images                       3626 12.9    0.086    0.156  185.209  206.652
 make_images_sizes                 3626 13.9    0.004    0.017  183.905  196.814
 mp_alltoall_i44                   3626 14.9  183.901  196.810  183.901  196.810
 mp_sum_dm                         1865 11.1  180.179  184.787  180.179  184.787
 tddfpt_compute_residual_vects       10  8.0    0.001    0.001  183.211  183.534
 multiply_cannon_loop              1813 12.9    0.129    0.226  158.430  179.783
 -------------------------------------------------------------------------------

 The number of warnings for this run is : 1
 
 -------------------------------------------------------------------------------
  **** **** ******  **  PROGRAM ENDED AT                 2024-02-05 13:30:42.839
 ***** ** ***  *** **   PROGRAM RAN ON                               nesh-clk577
 **    ****   ******    PROGRAM RAN BY                                  suphc355
 ***** **    ** ** **   PROGRAM PROCESS ID                                279830
  **** **  *******  **  PROGRAM STOPPED IN /gxfs_work/cau/suphc355/homologes/CH2
                                           X/AE/O
