 DBCSR| CPU Multiplication driver                                           XSMM (U)
 DBCSR| Multrec recursion limit                                              512 (U)
 DBCSR| Multiplication stack size                                           1000 (D)
 DBCSR| Maximum elements for images                                    UNLIMITED (U)
 DBCSR| Multiplicative factor virtual images                                   1 (U)
 DBCSR| Use multiplication densification                                       T (D)
 DBCSR| Multiplication size stacks                                             3 (U)
 DBCSR| Use memory pool for CPU allocation                                     F (U)
 DBCSR| Number of 3D layers                                               SINGLE (U)
 DBCSR| Use MPI memory allocation                                              F (U)
 DBCSR| Use RMA algorithm                                                      F (U)
 DBCSR| Use Communication thread                                               T (U)
 DBCSR| Communication thread load                                             87 (D)
 DBCSR| MPI: My process id                                                     0
 DBCSR| MPI: Number of processes                                             128
 DBCSR| OMP: Current number of threads                                         1
 DBCSR| OMP: Max number of threads                                             1
 DBCSR| Split modifier for TAS multiplication algorithm                  1.0E+00 (U)


  **** **** ******  **  PROGRAM STARTED AT               2024-02-02 09:16:16.468
 ***** ** ***  *** **   PROGRAM STARTED ON                           nesh-clk548
 **    ****   ******    PROGRAM STARTED BY                              suphc355
 ***** **    ** ** **   PROGRAM PROCESS ID                                623106
  **** **  *******  **  PROGRAM STARTED IN /gxfs_work/cau/suphc355/homologes/CH2
                                           X/AE/O

 CP2K| version string:                 CP2K version 2024.1 (Development Version)
 CP2K| source code revision number:                                  git:b6f9133
 CP2K| cp2kflags: omp libint fftw3 libxc libgrpp parallel mpi_f08 scalapack cosm
 CP2K|            a xsmm spglib mkl
 CP2K| is freely available from                            https://www.cp2k.org/
 CP2K| Program compiled at                          Fr 26. Jan 09:14:30 CET 2024
 CP2K| Program compiled on                                           nesh-login3
 CP2K| Program compiled for                                                local
 CP2K| Data directory path            /gxfs_home/cau/suphc355/software/cp2k/data
 CP2K| Input file name                                                AE_aug.inp
 
 GLOBAL| Force Environment number                                              1
 GLOBAL| Basis set file name                                  ../../../basis_aug
 GLOBAL| Potential file name                                           POTENTIAL
 GLOBAL| MM Potential file name                                     MM_POTENTIAL
 GLOBAL| Coordinate file name                                            opt.xyz
 GLOBAL| Method name                                                        CP2K
 GLOBAL| Project name                                                CH2O_AE_aug
 GLOBAL| Run type                                                         ENERGY
 GLOBAL| FFT library                                                       FFTW3
 GLOBAL| Diagonalization library                                       ScaLAPACK
 GLOBAL| DGEMM library                                                      BLAS
 GLOBAL| Orthonormality check for eigenvectors                          DISABLED
 GLOBAL| Matrix multiplication library                                     COSMA
 GLOBAL| All-to-all communication in single precision                          F
 GLOBAL| FFTs using library dependent lengths                                  F
 GLOBAL| Grid backend                                                       AUTO
 GLOBAL| Global print level                                               MEDIUM
 GLOBAL| MPI I/O enabled                                                       T
 GLOBAL| Total number of message passing processes                           128
 GLOBAL| Number of threads for this process                                    1
 GLOBAL| This output is from process                                           0
 GLOBAL| Stack size for threads created by OpenMP (OMP_STACKSIZE)        default
 GLOBAL| CPU model name                Intel(R) Xeon(R) Gold 6226R CPU @ 2.90GHz
 GLOBAL| CPUID                                                              1003

 MEMORY| system memory details [Kb]
 MEMORY|                        rank 0           min           max       average
 MEMORY| MemTotal            196682748     196682748     196683224     196683105
 MEMORY| MemFree             175773056     175733972     176007500     175858301
 MEMORY| Buffers                569644        553508        603188        578593
 MEMORY| Cached                1148232       1024924       1257536       1139432
 MEMORY| Slab                   814716        769840        814716        788736
 MEMORY| SReclaimable           216548        197728        219928        213249
 MEMORY| MemLikelyFree       177707480     177707480     177906836     177789575


 *** Fundamental physical constants (SI units) ***

 *** Literature: B. J. Mohr and B. N. Taylor,
 ***             CODATA recommended values of the fundamental physical
 ***             constants: 2006, Web Version 5.1
 ***             http://physics.nist.gov/constants

 Speed of light in vacuum [m/s]                             2.99792458000000E+08
 Magnetic constant or permeability of vacuum [N/A**2]       1.25663706143592E-06
 Electric constant or permittivity of vacuum [F/m]          8.85418781762039E-12
 Planck constant (h) [J*s]                                  6.62606896000000E-34
 Planck constant (h-bar) [J*s]                              1.05457162825177E-34
 Elementary charge [C]                                      1.60217648700000E-19
 Electron mass [kg]                                         9.10938215000000E-31
 Electron g factor [ ]                                     -2.00231930436220E+00
 Proton mass [kg]                                           1.67262163700000E-27
 Fine-structure constant                                    7.29735253760000E-03
 Rydberg constant [1/m]                                     1.09737315685270E+07
 Avogadro constant [1/mol]                                  6.02214179000000E+23
 Boltzmann constant [J/K]                                   1.38065040000000E-23
 Atomic mass unit [kg]                                      1.66053878200000E-27
 Bohr radius [m]                                            5.29177208590000E-11

 *** Conversion factors ***

 [u] -> [a.u.]                                              1.82288848426455E+03
 [Angstrom] -> [Bohr] = [a.u.]                              1.88972613288564E+00
 [a.u.] = [Bohr] -> [Angstrom]                              5.29177208590000E-01
 [a.u.] -> [s]                                              2.41888432650478E-17
 [a.u.] -> [fs]                                             2.41888432650478E-02
 [a.u.] -> [J]                                              4.35974393937059E-18
 [a.u.] -> [N]                                              8.23872205491840E-08
 [a.u.] -> [K]                                              3.15774647902944E+05
 [a.u.] -> [kJ/mol]                                         2.62549961709828E+03
 [a.u.] -> [kcal/mol]                                       6.27509468713739E+02
 [a.u.] -> [Pa]                                             2.94210107994716E+13
 [a.u.] -> [bar]                                            2.94210107994716E+08
 [a.u.] -> [atm]                                            2.90362800883016E+08
 [a.u.] -> [eV]                                             2.72113838565563E+01
 [a.u.] -> [Hz]                                             6.57968392072181E+15
 [a.u.] -> [1/cm] (wave numbers)                            2.19474631370540E+05
 [a.u./Bohr**2] -> [1/cm]                                   5.14048714338585E+03
 

 CELL_TOP| Volume [angstrom^3]:                                      8000.000000
 CELL_TOP| Vector a [angstrom    20.000     0.000     0.000   |a| =    20.000000
 CELL_TOP| Vector b [angstrom     0.000    20.000     0.000   |b| =    20.000000
 CELL_TOP| Vector c [angstrom     0.000     0.000    20.000   |c| =    20.000000
 CELL_TOP| Angle (b,c), alpha [degree]:                                90.000000
 CELL_TOP| Angle (a,c), beta  [degree]:                                90.000000
 CELL_TOP| Angle (a,b), gamma [degree]:                                90.000000
 CELL_TOP| Numerically orthorhombic:                                         YES
 CELL_TOP| Periodicity                                                      NONE
 
 GENERATE|  Preliminary Number of Bonds generated:                             0
 GENERATE|  Achieved consistency in connectivity generation.

 CELL| Volume [angstrom^3]:                                          8000.000000
 CELL| Vector a [angstrom]:      20.000     0.000     0.000   |a| =    20.000000
 CELL| Vector b [angstrom]:       0.000    20.000     0.000   |b| =    20.000000
 CELL| Vector c [angstrom]:       0.000     0.000    20.000   |c| =    20.000000
 CELL| Angle (b,c), alpha [degree]:                                    90.000000
 CELL| Angle (a,c), beta  [degree]:                                    90.000000
 CELL| Angle (a,b), gamma [degree]:                                    90.000000
 CELL| Numerically orthorhombic:                                             YES
 CELL| Periodicity                                                          NONE

 CELL_REF| Volume [angstrom^3]:                                      8000.000000
 CELL_REF| Vector a [angstrom    20.000     0.000     0.000   |a| =    20.000000
 CELL_REF| Vector b [angstrom     0.000    20.000     0.000   |b| =    20.000000
 CELL_REF| Vector c [angstrom     0.000     0.000    20.000   |c| =    20.000000
 CELL_REF| Angle (b,c), alpha [degree]:                                90.000000
 CELL_REF| Angle (a,c), beta  [degree]:                                90.000000
 CELL_REF| Angle (a,b), gamma [degree]:                                90.000000
 CELL_REF| Numerically orthorhombic:                                         YES
 CELL_REF| Periodicity                                                      NONE

 *******************************************************************************
 *******************************************************************************
 **                                                                           **
 **     #####                         ##              ##                      **
 **    ##   ##            ##          ##              ##                      **
 **   ##     ##                       ##            ######                    **
 **   ##     ##  ##   ##  ##   #####  ##  ##   ####   ##    #####    #####    **
 **   ##     ##  ##   ##  ##  ##      ## ##   ##      ##   ##   ##  ##   ##   **
 **   ##  ## ##  ##   ##  ##  ##      ####     ###    ##   ######   ######    **
 **    ##  ###   ##   ##  ##  ##      ## ##      ##   ##   ##       ##        **
 **     #######   #####   ##   #####  ##  ##  ####    ##    #####   ##        **
 **           ##                                                    ##        **
 **                                                                           **
 **                                                ... make the atoms dance   **
 **                                                                           **
 **            Copyright (C) by CP2K developers group (2000-2024)             **
 **                      J. Chem. Phys. 152, 194103 (2020)                    **
 **                                                                           **
 *******************************************************************************

 DFT| Spin restricted Kohn-Sham (RKS) calculation                            RKS
 DFT| Multiplicity                                                             1
 DFT| Number of spin states                                                    1
 DFT| Charge                                                                   0
 DFT| Self-interaction correction (SIC)                                       NO
 DFT| Cutoffs: density                                              1.000000E-10
 DFT|          gradient                                             1.000000E-10
 DFT|          tau                                                  1.000000E-10
 DFT|          cutoff_smoothing_range                               0.000000E+00
 DFT| XC density smoothing                                                  NONE
 DFT| XC derivatives                                                          PW

 FUNCTIONAL| PBE:
 FUNCTIONAL| J.P.Perdew, K.Burke, M.Ernzerhof, Phys. Rev. Letter, vol. 77, n 18,
 FUNCTIONAL|  pp. 3865-3868, (1996)sx=0.750sc=1.000{spin unpolarized}           


 QS| Method:                                                                GAPW
 QS| Density plane wave grid type                        NON-SPHERICAL FULLSPACE
 QS| Number of grid levels:                                                    5
 QS| Density cutoff [a.u.]:                                                600.0
 QS| Multi grid cutoff [a.u.]: 1) grid level                               600.0
 QS|                           2) grid level                               200.0
 QS|                           3) grid level                                66.7
 QS|                           4) grid level                                22.2
 QS|                           5) grid level                                 7.4
 QS| Grid level progression factor:                                          3.0
 QS| Relative density cutoff [a.u.]:                                        40.0
 QS| Interaction thresholds: eps_pgf_orb:                                1.0E-30
 QS|                         eps_filter_matrix:                          0.0E+00
 QS|                         eps_core_charge:                            1.0E-17
 QS|                         eps_rho_gspace:                             1.0E-15
 QS|                         eps_rho_rspace:                             1.0E-15
 QS|                         eps_gvg_rspace:                             3.2E-08
 QS|                         eps_ppl:                                    1.0E-02
 QS|                         eps_ppnl:                                   3.2E-10
 QS| GAPW|      One center basis from orbital basis primitives
 QS| GAPW|                   eps_fit:                                    1.0E-04
 QS| GAPW|                   eps_iso:                                    1.0E-12
 QS| GAPW|                   eps_svd:                                    1.0E-08
 QS| GAPW|                   eps_cpc:                                    1.0E-15
 QS| GAPW|   atom-r-grid: quadrature:                                     GC_LOG
 QS| GAPW|      atom-s-grid:  max l :                                          8
 QS| GAPW|      max_l_rho0 :                                                   2


 ATOMIC KIND INFORMATION

  1. Atomic kind: O                                     Number of atoms:       1

     Orbital Basis Set                                               aug-cc-pVQZ

       Number of orbital shell sets:                                          10
       Number of orbital shells:                                              20
       Number of primitive Cartesian functions:                               29
       Number of Cartesian basis functions:                                  105
       Number of spherical basis functions:                                   80
       Norm type:                                                              2

       Normalised Cartesian orbitals:

                        Set   Shell   Orbital            Exponent    Coefficient

                          1       1    1s            61420.000000       0.250256
                                                      9199.000000       0.467274
                                                      2091.000000       0.807479
                                                       590.900000       1.299881
                                                       192.300000       1.929375
                                                        69.320000       2.498458
                                                        26.970000       2.574768
                                                        11.100000       1.727188
                                                         4.682000       0.492214
                                                         1.428000       0.016380
                                                         0.554700      -0.001146
                                                         0.206700       0.000208

                          1       2    2s            61420.000000       0.000000
                                                      9199.000000       0.000000
                                                      2091.000000       0.000000
                                                       590.900000       0.000000
                                                       192.300000       0.000000
                                                        69.320000       0.000000
                                                        26.970000       0.000000
                                                        11.100000       0.000000
                                                         4.682000       0.000000
                                                         1.428000       0.931014
                                                         0.554700       0.000000
                                                         0.206700       0.000000

                          1       3    3s            61420.000000       0.000000
                                                      9199.000000       0.000000
                                                      2091.000000       0.000000
                                                       590.900000       0.000000
                                                       192.300000       0.000000
                                                        69.320000       0.000000
                                                        26.970000       0.000000
                                                        11.100000       0.000000
                                                         4.682000       0.000000
                                                         1.428000       0.000000
                                                         0.554700       0.458093
                                                         0.206700       0.000000

                          1       4    4s            61420.000000      -0.055613
                                                      9199.000000      -0.106442
                                                      2091.000000      -0.182696
                                                       590.900000      -0.299644
                                                       192.300000      -0.447389
                                                        69.320000      -0.620860
                                                        26.970000      -0.700015
                                                        11.100000      -0.659178
                                                         4.682000      -0.261625
                                                         1.428000       0.269044
                                                         0.554700       0.268501
                                                         0.206700       0.060656

                          1       5    5s            61420.000000       0.000000
                                                      9199.000000       0.000000
                                                      2091.000000       0.000000
                                                       590.900000       0.000000
                                                       192.300000       0.000000
                                                        69.320000       0.000000
                                                        26.970000       0.000000
                                                        11.100000       0.000000
                                                         4.682000       0.000000
                                                         1.428000       0.000000
                                                         0.554700       0.000000
                                                         0.206700       0.218482

                          2       1    1s                0.069590       0.096565

                          3       1    1px              63.420000       0.000000
                                                        14.660000       0.000000
                                                         4.459000       0.000000
                                                         1.531000       2.427499
                                                         0.530200       0.000000
                                                         0.175000       0.000000
                          3       1    1py              63.420000       0.000000
                                                        14.660000       0.000000
                                                         4.459000       0.000000
                                                         1.531000       2.427499
                                                         0.530200       0.000000
                                                         0.175000       0.000000
                          3       1    1pz              63.420000       0.000000
                                                        14.660000       0.000000
                                                         4.459000       0.000000
                                                         1.531000       2.427499
                                                         0.530200       0.000000
                                                         0.175000       0.000000

                          3       2    2px              63.420000       1.541868
                                                        14.660000       1.709122
                                                         4.459000       1.488326
                                                         1.531000       0.865964
                                                         0.530200       0.289113
                                                         0.175000       0.039518
                          3       2    2py              63.420000       1.541868
                                                        14.660000       1.709122
                                                         4.459000       1.488326
                                                         1.531000       0.865964
                                                         0.530200       0.289113
                                                         0.175000       0.039518
                          3       2    2pz              63.420000       1.541868
                                                        14.660000       1.709122
                                                         4.459000       1.488326
                                                         1.531000       0.865964
                                                         0.530200       0.289113
                                                         0.175000       0.039518

                          3       3    3px              63.420000       0.000000
                                                        14.660000       0.000000
                                                         4.459000       0.000000
                                                         1.531000       0.000000
                                                         0.530200       0.644896
                                                         0.175000       0.000000
                          3       3    3py              63.420000       0.000000
                                                        14.660000       0.000000
                                                         4.459000       0.000000
                                                         1.531000       0.000000
                                                         0.530200       0.644896
                                                         0.175000       0.000000
                          3       3    3pz              63.420000       0.000000
                                                        14.660000       0.000000
                                                         4.459000       0.000000
                                                         1.531000       0.000000
                                                         0.530200       0.644896
                                                         0.175000       0.000000

                          3       4    4px              63.420000       0.000000
                                                        14.660000       0.000000
                                                         4.459000       0.000000
                                                         1.531000       0.000000
                                                         0.530200       0.000000
                                                         0.175000       0.161338
                          3       4    4py              63.420000       0.000000
                                                        14.660000       0.000000
                                                         4.459000       0.000000
                                                         1.531000       0.000000
                                                         0.530200       0.000000
                                                         0.175000       0.161338
                          3       4    4pz              63.420000       0.000000
                                                        14.660000       0.000000
                                                         4.459000       0.000000
                                                         1.531000       0.000000
                                                         0.530200       0.000000
                                                         0.175000       0.161338

                          4       1    1px               0.053480       0.036659
                          4       1    1py               0.053480       0.036659
                          4       1    1pz               0.053480       0.036659

                          5       1    1dx2              3.775000      16.827288
                                                         1.300000       0.000000
                                                         0.444000       0.000000
                          5       1    1dxy              3.775000      29.145718
                                                         1.300000       0.000000
                                                         0.444000       0.000000
                          5       1    1dxz              3.775000      29.145718
                                                         1.300000       0.000000
                                                         0.444000       0.000000
                          5       1    1dy2              3.775000      16.827288
                                                         1.300000       0.000000
                                                         0.444000       0.000000
                          5       1    1dyz              3.775000      29.145718
                                                         1.300000       0.000000
                                                         0.444000       0.000000
                          5       1    1dz2              3.775000      16.827288
                                                         1.300000       0.000000
                                                         0.444000       0.000000

                          5       2    2dx2              3.775000       0.000000
                                                         1.300000       2.605016
                                                         0.444000       0.000000
                          5       2    2dxy              3.775000       0.000000
                                                         1.300000       4.512019
                                                         0.444000       0.000000
                          5       2    2dxz              3.775000       0.000000
                                                         1.300000       4.512019
                                                         0.444000       0.000000
                          5       2    2dy2              3.775000       0.000000
                                                         1.300000       2.605016
                                                         0.444000       0.000000
                          5       2    2dyz              3.775000       0.000000
                                                         1.300000       4.512019
                                                         0.444000       0.000000
                          5       2    2dz2              3.775000       0.000000
                                                         1.300000       2.605016
                                                         0.444000       0.000000

                          5       3    3dx2              3.775000       0.000000
                                                         1.300000       0.000000
                                                         0.444000       0.397493
                          5       3    3dxy              3.775000       0.000000
                                                         1.300000       0.000000
                                                         0.444000       0.688478
                          5       3    3dxz              3.775000       0.000000
                                                         1.300000       0.000000
                                                         0.444000       0.688478
                          5       3    3dy2              3.775000       0.000000
                                                         1.300000       0.000000
                                                         0.444000       0.397493
                          5       3    3dyz              3.775000       0.000000
                                                         1.300000       0.000000
                                                         0.444000       0.688478
                          5       3    3dz2              3.775000       0.000000
                                                         1.300000       0.000000
                                                         0.444000       0.397493

                          6       1    1dx2              0.154000       0.062312
                          6       1    1dxy              0.154000       0.107927
                          6       1    1dxz              0.154000       0.107927
                          6       1    1dy2              0.154000       0.062312
                          6       1    1dyz              0.154000       0.107927
                          6       1    1dz2              0.154000       0.062312

                          7       1    1fx3              2.666000      13.370258
                                                         0.859000       0.000000
                          7       1    1fx2y             2.666000      29.896805
                                                         0.859000       0.000000
                          7       1    1fx2z             2.666000      29.896805
                                                         0.859000       0.000000
                          7       1    1fxy2             2.666000      29.896805
                                                         0.859000       0.000000
                          7       1    1fxyz             2.666000      51.782785
                                                         0.859000       0.000000
                          7       1    1fxz2             2.666000      29.896805
                                                         0.859000       0.000000
                          7       1    1fy3              2.666000      13.370258
                                                         0.859000       0.000000
                          7       1    1fy2z             2.666000      29.896805
                                                         0.859000       0.000000
                          7       1    1fyz2             2.666000      29.896805
                                                         0.859000       0.000000
                          7       1    1fz3              2.666000      13.370258
                                                         0.859000       0.000000

                          7       2    2fx3              2.666000       0.000000
                                                         0.859000       1.045777
                          7       2    2fx2y             2.666000       0.000000
                                                         0.859000       2.338428
                          7       2    2fx2z             2.666000       0.000000
                                                         0.859000       2.338428
                          7       2    2fxy2             2.666000       0.000000
                                                         0.859000       2.338428
                          7       2    2fxyz             2.666000       0.000000
                                                         0.859000       4.050277
                          7       2    2fxz2             2.666000       0.000000
                                                         0.859000       2.338428
                          7       2    2fy3              2.666000       0.000000
                                                         0.859000       1.045777
                          7       2    2fy2z             2.666000       0.000000
                                                         0.859000       2.338428
                          7       2    2fyz2             2.666000       0.000000
                                                         0.859000       2.338428
                          7       2    2fz3              2.666000       0.000000
                                                         0.859000       1.045777

                          8       1    1fx3              0.324000       0.116595
                          8       1    1fx2y             0.324000       0.260715
                          8       1    1fx2z             0.324000       0.260715
                          8       1    1fxy2             0.324000       0.260715
                          8       1    1fxyz             0.324000       0.451571
                          8       1    1fxz2             0.324000       0.260715
                          8       1    1fy3              0.324000       0.116595
                          8       1    1fy2z             0.324000       0.260715
                          8       1    1fyz2             0.324000       0.260715
                          8       1    1fz3              0.324000       0.116595

                          9       1    1gx4              1.846000       6.005824
                          9       1    1gx3y             1.846000      15.889916
                          9       1    1gx3z             1.846000      15.889916
                          9       1    1gx2y2            1.846000      20.513794
                          9       1    1gx2yz            1.846000      35.530933
                          9       1    1gx2z2            1.846000      20.513794
                          9       1    1gxy3             1.846000      15.889916
                          9       1    1gxy2z            1.846000      35.530933
                          9       1    1gxyz2            1.846000      35.530933
                          9       1    1gxz3             1.846000      15.889916
                          9       1    1gy4              1.846000       6.005824
                          9       1    1gy3z             1.846000      15.889916
                          9       1    1gy2z2            1.846000      20.513794
                          9       1    1gyz3             1.846000      15.889916
                          9       1    1gz4              1.846000       6.005824

                         10       1    1gx4              0.714000       0.440662
                         10       1    1gx3y             0.714000       1.165882
                         10       1    1gx3z             0.714000       1.165882
                         10       1    1gx2y2            0.714000       1.505147
                         10       1    1gx2yz            0.714000       2.606991
                         10       1    1gx2z2            0.714000       1.505147
                         10       1    1gxy3             0.714000       1.165882
                         10       1    1gxy2z            0.714000       2.606991
                         10       1    1gxyz2            0.714000       2.606991
                         10       1    1gxz3             0.714000       1.165882
                         10       1    1gy4              0.714000       0.440662
                         10       1    1gy3z             0.714000       1.165882
                         10       1    1gy2z2            0.714000       1.505147
                         10       1    1gyz3             0.714000       1.165882
                         10       1    1gz4              0.714000       0.440662

       Atomic covalent radius [Angstrom]:                                  0.730

       Atomic van der Waals radius [Angstrom]:                             1.520

     The atoms of this atomic kind are PAW atoms (GAPW):
       Hard Gaussian function radius:                                      1.512
       Rho0 radius:                                                        1.512
       Maximum GTO radius used for PAW projector construction:            24.566

     GAPW Soft Basis Set                                        aug-cc-pVQZ_soft

       Number of orbital shell sets:                                          10
       Number of orbital shells:                                              20
       Number of primitive Cartesian functions:                               17
       Number of Cartesian basis functions:                                  105
       Number of spherical basis functions:                                   80
       Norm type:                                                              2

       Normalised Cartesian orbitals:

                        Set   Shell   Orbital            Exponent    Coefficient

                          1       1    1s                1.428000       0.016380
                                                         0.554700      -0.001146
                                                         0.206700       0.000208

                          1       2    2s                1.428000       0.931014
                                                         0.554700       0.000000
                                                         0.206700       0.000000

                          1       3    3s                1.428000       0.000000
                                                         0.554700       0.458093
                                                         0.206700       0.000000

                          1       4    4s                1.428000       0.269044
                                                         0.554700       0.268501
                                                         0.206700       0.060656

                          1       5    5s                1.428000       0.000000
                                                         0.554700       0.000000
                                                         0.206700       0.218482

                          2       1    1s                0.069590       0.096565

                          3       1    1px               1.531000       2.427499
                                                         0.530200       0.000000
                                                         0.175000       0.000000
                          3       1    1py               1.531000       2.427499
                                                         0.530200       0.000000
                                                         0.175000       0.000000
                          3       1    1pz               1.531000       2.427499
                                                         0.530200       0.000000
                                                         0.175000       0.000000

                          3       2    2px               1.531000       0.865964
                                                         0.530200       0.289113
                                                         0.175000       0.039518
                          3       2    2py               1.531000       0.865964
                                                         0.530200       0.289113
                                                         0.175000       0.039518
                          3       2    2pz               1.531000       0.865964
                                                         0.530200       0.289113
                                                         0.175000       0.039518

                          3       3    3px               1.531000       0.000000
                                                         0.530200       0.644896
                                                         0.175000       0.000000
                          3       3    3py               1.531000       0.000000
                                                         0.530200       0.644896
                                                         0.175000       0.000000
                          3       3    3pz               1.531000       0.000000
                                                         0.530200       0.644896
                                                         0.175000       0.000000

                          3       4    4px               1.531000       0.000000
                                                         0.530200       0.000000
                                                         0.175000       0.161338
                          3       4    4py               1.531000       0.000000
                                                         0.530200       0.000000
                                                         0.175000       0.161338
                          3       4    4pz               1.531000       0.000000
                                                         0.530200       0.000000
                                                         0.175000       0.161338

                          4       1    1px               0.053480       0.036659
                          4       1    1py               0.053480       0.036659
                          4       1    1pz               0.053480       0.036659

                          5       1    1dx2              3.775000      16.827288
                                                         1.300000       0.000000
                                                         0.444000       0.000000
                          5       1    1dxy              3.775000      29.145718
                                                         1.300000       0.000000
                                                         0.444000       0.000000
                          5       1    1dxz              3.775000      29.145718
                                                         1.300000       0.000000
                                                         0.444000       0.000000
                          5       1    1dy2              3.775000      16.827288
                                                         1.300000       0.000000
                                                         0.444000       0.000000
                          5       1    1dyz              3.775000      29.145718
                                                         1.300000       0.000000
                                                         0.444000       0.000000
                          5       1    1dz2              3.775000      16.827288
                                                         1.300000       0.000000
                                                         0.444000       0.000000

                          5       2    2dx2              3.775000       0.000000
                                                         1.300000       2.605016
                                                         0.444000       0.000000
                          5       2    2dxy              3.775000       0.000000
                                                         1.300000       4.512019
                                                         0.444000       0.000000
                          5       2    2dxz              3.775000       0.000000
                                                         1.300000       4.512019
                                                         0.444000       0.000000
                          5       2    2dy2              3.775000       0.000000
                                                         1.300000       2.605016
                                                         0.444000       0.000000
                          5       2    2dyz              3.775000       0.000000
                                                         1.300000       4.512019
                                                         0.444000       0.000000
                          5       2    2dz2              3.775000       0.000000
                                                         1.300000       2.605016
                                                         0.444000       0.000000

                          5       3    3dx2              3.775000       0.000000
                                                         1.300000       0.000000
                                                         0.444000       0.397493
                          5       3    3dxy              3.775000       0.000000
                                                         1.300000       0.000000
                                                         0.444000       0.688478
                          5       3    3dxz              3.775000       0.000000
                                                         1.300000       0.000000
                                                         0.444000       0.688478
                          5       3    3dy2              3.775000       0.000000
                                                         1.300000       0.000000
                                                         0.444000       0.397493
                          5       3    3dyz              3.775000       0.000000
                                                         1.300000       0.000000
                                                         0.444000       0.688478
                          5       3    3dz2              3.775000       0.000000
                                                         1.300000       0.000000
                                                         0.444000       0.397493

                          6       1    1dx2              0.154000       0.062312
                          6       1    1dxy              0.154000       0.107927
                          6       1    1dxz              0.154000       0.107927
                          6       1    1dy2              0.154000       0.062312
                          6       1    1dyz              0.154000       0.107927
                          6       1    1dz2              0.154000       0.062312

                          7       1    1fx3              2.666000      13.370258
                                                         0.859000       0.000000
                          7       1    1fx2y             2.666000      29.896805
                                                         0.859000       0.000000
                          7       1    1fx2z             2.666000      29.896805
                                                         0.859000       0.000000
                          7       1    1fxy2             2.666000      29.896805
                                                         0.859000       0.000000
                          7       1    1fxyz             2.666000      51.782785
                                                         0.859000       0.000000
                          7       1    1fxz2             2.666000      29.896805
                                                         0.859000       0.000000
                          7       1    1fy3              2.666000      13.370258
                                                         0.859000       0.000000
                          7       1    1fy2z             2.666000      29.896805
                                                         0.859000       0.000000
                          7       1    1fyz2             2.666000      29.896805
                                                         0.859000       0.000000
                          7       1    1fz3              2.666000      13.370258
                                                         0.859000       0.000000

                          7       2    2fx3              2.666000       0.000000
                                                         0.859000       1.045777
                          7       2    2fx2y             2.666000       0.000000
                                                         0.859000       2.338428
                          7       2    2fx2z             2.666000       0.000000
                                                         0.859000       2.338428
                          7       2    2fxy2             2.666000       0.000000
                                                         0.859000       2.338428
                          7       2    2fxyz             2.666000       0.000000
                                                         0.859000       4.050277
                          7       2    2fxz2             2.666000       0.000000
                                                         0.859000       2.338428
                          7       2    2fy3              2.666000       0.000000
                                                         0.859000       1.045777
                          7       2    2fy2z             2.666000       0.000000
                                                         0.859000       2.338428
                          7       2    2fyz2             2.666000       0.000000
                                                         0.859000       2.338428
                          7       2    2fz3              2.666000       0.000000
                                                         0.859000       1.045777

                          8       1    1fx3              0.324000       0.116595
                          8       1    1fx2y             0.324000       0.260715
                          8       1    1fx2z             0.324000       0.260715
                          8       1    1fxy2             0.324000       0.260715
                          8       1    1fxyz             0.324000       0.451571
                          8       1    1fxz2             0.324000       0.260715
                          8       1    1fy3              0.324000       0.116595
                          8       1    1fy2z             0.324000       0.260715
                          8       1    1fyz2             0.324000       0.260715
                          8       1    1fz3              0.324000       0.116595

                          9       1    1gx4              1.846000       6.005824
                          9       1    1gx3y             1.846000      15.889916
                          9       1    1gx3z             1.846000      15.889916
                          9       1    1gx2y2            1.846000      20.513794
                          9       1    1gx2yz            1.846000      35.530933
                          9       1    1gx2z2            1.846000      20.513794
                          9       1    1gxy3             1.846000      15.889916
                          9       1    1gxy2z            1.846000      35.530933
                          9       1    1gxyz2            1.846000      35.530933
                          9       1    1gxz3             1.846000      15.889916
                          9       1    1gy4              1.846000       6.005824
                          9       1    1gy3z             1.846000      15.889916
                          9       1    1gy2z2            1.846000      20.513794
                          9       1    1gyz3             1.846000      15.889916
                          9       1    1gz4              1.846000       6.005824

                         10       1    1gx4              0.714000       0.440662
                         10       1    1gx3y             0.714000       1.165882
                         10       1    1gx3z             0.714000       1.165882
                         10       1    1gx2y2            0.714000       1.505147
                         10       1    1gx2yz            0.714000       2.606991
                         10       1    1gx2z2            0.714000       1.505147
                         10       1    1gxy3             0.714000       1.165882
                         10       1    1gxy2z            0.714000       2.606991
                         10       1    1gxyz2            0.714000       2.606991
                         10       1    1gxz3             0.714000       1.165882
                         10       1    1gy4              0.714000       0.440662
                         10       1    1gy3z             0.714000       1.165882
                         10       1    1gy2z2            0.714000       1.505147
                         10       1    1gyz3             0.714000       1.165882
                         10       1    1gz4              0.714000       0.440662

     AE Potential information for                                            ALL

       Description:                                       All-electron potential
                                          Krack, Parrinello, PCCP 2, 2105 (2000)

       Gaussian exponent of the core charge distribution:               8.154466
       Electronic configuration (s p d ...):                           4   4   0

  2. Atomic kind: C                                     Number of atoms:       1

     Orbital Basis Set                                               aug-cc-pVQZ

       Number of orbital shell sets:                                          10
       Number of orbital shells:                                              20
       Number of primitive Cartesian functions:                               29
       Number of Cartesian basis functions:                                  105
       Number of spherical basis functions:                                   80
       Norm type:                                                              2

       Normalised Cartesian orbitals:

                        Set   Shell   Orbital            Exponent    Coefficient

                          1       1    1s            33980.000000       0.162319
                                                      5089.000000       0.302313
                                                      1157.000000       0.522143
                                                       326.600000       0.841034
                                                       106.100000       1.247069
                                                        38.110000       1.607436
                                                        14.750000       1.639463
                                                         6.035000       1.095889
                                                         2.530000       0.310322
                                                         0.735500       0.008997
                                                         0.290500      -0.000870
                                                         0.111100       0.000134

                          1       2    2s            33980.000000       0.000000
                                                      5089.000000       0.000000
                                                      1157.000000       0.000000
                                                       326.600000       0.000000
                                                       106.100000       0.000000
                                                        38.110000       0.000000
                                                        14.750000       0.000000
                                                         6.035000       0.000000
                                                         2.530000       0.000000
                                                         0.735500       0.566040
                                                         0.290500       0.000000
                                                         0.111100       0.000000

                          1       3    3s            33980.000000       0.000000
                                                      5089.000000       0.000000
                                                      1157.000000       0.000000
                                                       326.600000       0.000000
                                                       106.100000       0.000000
                                                        38.110000       0.000000
                                                        14.750000       0.000000
                                                         6.035000       0.000000
                                                         2.530000       0.000000
                                                         0.735500       0.000000
                                                         0.290500       0.282013
                                                         0.111100       0.000000

                          1       4    4s            33980.000000      -0.033891
                                                      5089.000000      -0.064843
                                                      1157.000000      -0.110989
                                                       326.600000      -0.182005
                                                       106.100000      -0.271236
                                                        38.110000      -0.373428
                                                        14.750000      -0.413970
                                                         6.035000      -0.388287
                                                         2.530000      -0.168734
                                                         0.735500       0.154985
                                                         0.290500       0.165404
                                                         0.111100       0.039147

                          1       5    5s            33980.000000       0.000000
                                                      5089.000000       0.000000
                                                      1157.000000       0.000000
                                                       326.600000       0.000000
                                                       106.100000       0.000000
                                                        38.110000       0.000000
                                                        14.750000       0.000000
                                                         6.035000       0.000000
                                                         2.530000       0.000000
                                                         0.735500       0.000000
                                                         0.290500       0.000000
                                                         0.111100       0.137150

                          2       1    1s                0.041450       0.065472

                          3       1    1px              34.510000       0.000000
                                                         7.915000       0.000000
                                                         2.368000       0.000000
                                                         0.813200       1.100745
                                                         0.289000       0.000000
                                                         0.100700       0.000000
                          3       1    1py              34.510000       0.000000
                                                         7.915000       0.000000
                                                         2.368000       0.000000
                                                         0.813200       1.100745
                                                         0.289000       0.000000
                                                         0.100700       0.000000
                          3       1    1pz              34.510000       0.000000
                                                         7.915000       0.000000
                                                         2.368000       0.000000
                                                         0.813200       1.100745
                                                         0.289000       0.000000
                                                         0.100700       0.000000

                          3       2    2px              34.510000       0.641198
                                                         7.915000       0.683747
                                                         2.368000       0.596637
                                                         0.813200       0.376620
                                                         0.289000       0.140105
                                                         0.100700       0.020217
                          3       2    2py              34.510000       0.641198
                                                         7.915000       0.683747
                                                         2.368000       0.596637
                                                         0.813200       0.376620
                                                         0.289000       0.140105
                                                         0.100700       0.020217
                          3       2    2pz              34.510000       0.641198
                                                         7.915000       0.683747
                                                         2.368000       0.596637
                                                         0.813200       0.376620
                                                         0.289000       0.140105
                                                         0.100700       0.020217

                          3       3    3px              34.510000       0.000000
                                                         7.915000       0.000000
                                                         2.368000       0.000000
                                                         0.813200       0.000000
                                                         0.289000       0.302039
                                                         0.100700       0.000000
                          3       3    3py              34.510000       0.000000
                                                         7.915000       0.000000
                                                         2.368000       0.000000
                                                         0.813200       0.000000
                                                         0.289000       0.302039
                                                         0.100700       0.000000
                          3       3    3pz              34.510000       0.000000
                                                         7.915000       0.000000
                                                         2.368000       0.000000
                                                         0.813200       0.000000
                                                         0.289000       0.302039
                                                         0.100700       0.000000

                          3       4    4px              34.510000       0.000000
                                                         7.915000       0.000000
                                                         2.368000       0.000000
                                                         0.813200       0.000000
                                                         0.289000       0.000000
                                                         0.100700       0.080859
                          3       4    4py              34.510000       0.000000
                                                         7.915000       0.000000
                                                         2.368000       0.000000
                                                         0.813200       0.000000
                                                         0.289000       0.000000
                                                         0.100700       0.080859
                          3       4    4pz              34.510000       0.000000
                                                         7.915000       0.000000
                                                         2.368000       0.000000
                                                         0.813200       0.000000
                                                         0.289000       0.000000
                                                         0.100700       0.080859

                          4       1    1px               0.032180       0.019428
                          4       1    1py               0.032180       0.019428
                          4       1    1pz               0.032180       0.019428

                          5       1    1dx2              1.848000       4.821009
                                                         0.649000       0.000000
                                                         0.228000       0.000000
                          5       1    1dxy              1.848000       8.350232
                                                         0.649000       0.000000
                                                         0.228000       0.000000
                          5       1    1dxz              1.848000       8.350232
                                                         0.649000       0.000000
                                                         0.228000       0.000000
                          5       1    1dy2              1.848000       4.821009
                                                         0.649000       0.000000
                                                         0.228000       0.000000
                          5       1    1dyz              1.848000       8.350232
                                                         0.649000       0.000000
                                                         0.228000       0.000000
                          5       1    1dz2              1.848000       4.821009
                                                         0.649000       0.000000
                                                         0.228000       0.000000

                          5       2    2dx2              1.848000       0.000000
                                                         0.649000       0.772392
                                                         0.228000       0.000000
                          5       2    2dxy              1.848000       0.000000
                                                         0.649000       1.337822
                                                         0.228000       0.000000
                          5       2    2dxz              1.848000       0.000000
                                                         0.649000       1.337822
                                                         0.228000       0.000000
                          5       2    2dy2              1.848000       0.000000
                                                         0.649000       0.772392
                                                         0.228000       0.000000
                          5       2    2dyz              1.848000       0.000000
                                                         0.649000       1.337822
                                                         0.228000       0.000000
                          5       2    2dz2              1.848000       0.000000
                                                         0.649000       0.772392
                                                         0.228000       0.000000

                          5       3    3dx2              1.848000       0.000000
                                                         0.649000       0.000000
                                                         0.228000       0.123821
                          5       3    3dxy              1.848000       0.000000
                                                         0.649000       0.000000
                                                         0.228000       0.214465
                          5       3    3dxz              1.848000       0.000000
                                                         0.649000       0.000000
                                                         0.228000       0.214465
                          5       3    3dy2              1.848000       0.000000
                                                         0.649000       0.000000
                                                         0.228000       0.123821
                          5       3    3dyz              1.848000       0.000000
                                                         0.649000       0.000000
                                                         0.228000       0.214465
                          5       3    3dz2              1.848000       0.000000
                                                         0.649000       0.000000
                                                         0.228000       0.123821

                          6       1    1dx2              0.076600       0.018357
                          6       1    1dxy              0.076600       0.031796
                          6       1    1dxz              0.076600       0.031796
                          6       1    1dy2              0.076600       0.018357
                          6       1    1dyz              0.076600       0.031796
                          6       1    1dz2              0.076600       0.018357

                          7       1    1fx3              1.419000       3.235302
                                                         0.485000       0.000000
                          7       1    1fx2y             1.419000       7.234355
                                                         0.485000       0.000000
                          7       1    1fx2z             1.419000       7.234355
                                                         0.485000       0.000000
                          7       1    1fxy2             1.419000       7.234355
                                                         0.485000       0.000000
                          7       1    1fxyz             1.419000      12.530271
                                                         0.485000       0.000000
                          7       1    1fxz2             1.419000       7.234355
                                                         0.485000       0.000000
                          7       1    1fy3              1.419000       3.235302
                                                         0.485000       0.000000
                          7       1    1fy2z             1.419000       7.234355
                                                         0.485000       0.000000
                          7       1    1fyz2             1.419000       7.234355
                                                         0.485000       0.000000
                          7       1    1fz3              1.419000       3.235302
                                                         0.485000       0.000000

                          7       2    2fx3              1.419000       0.000000
                                                         0.485000       0.288984
                          7       2    2fx2y             1.419000       0.000000
                                                         0.485000       0.646187
                          7       2    2fx2z             1.419000       0.000000
                                                         0.485000       0.646187
                          7       2    2fxy2             1.419000       0.000000
                                                         0.485000       0.646187
                          7       2    2fxyz             1.419000       0.000000
                                                         0.485000       1.119229
                          7       2    2fxz2             1.419000       0.000000
                                                         0.485000       0.646187
                          7       2    2fy3              1.419000       0.000000
                                                         0.485000       0.288984
                          7       2    2fy2z             1.419000       0.000000
                                                         0.485000       0.646187
                          7       2    2fyz2             1.419000       0.000000
                                                         0.485000       0.646187
                          7       2    2fz3              1.419000       0.000000
                                                         0.485000       0.288984

                          8       1    1fx3              0.187000       0.033853
                          8       1    1fx2y             0.187000       0.075698
                          8       1    1fx2z             0.187000       0.075698
                          8       1    1fxy2             0.187000       0.075698
                          8       1    1fxyz             0.187000       0.131112
                          8       1    1fxz2             0.187000       0.075698
                          8       1    1fy3              0.187000       0.033853
                          8       1    1fy2z             0.187000       0.075698
                          8       1    1fyz2             0.187000       0.075698
                          8       1    1fz3              0.187000       0.033853

                          9       1    1gx4              1.011000       1.146835
                          9       1    1gx3y             1.011000       3.034241
                          9       1    1gx3z             1.011000       3.034241
                          9       1    1gx2y2            1.011000       3.917189
                          9       1    1gx2yz            1.011000       6.784770
                          9       1    1gx2z2            1.011000       3.917189
                          9       1    1gxy3             1.011000       3.034241
                          9       1    1gxy2z            1.011000       6.784770
                          9       1    1gxyz2            1.011000       6.784770
                          9       1    1gxz3             1.011000       3.034241
                          9       1    1gy4              1.011000       1.146835
                          9       1    1gy3z             1.011000       3.034241
                          9       1    1gy2z2            1.011000       3.917189
                          9       1    1gyz3             1.011000       3.034241
                          9       1    1gz4              1.011000       1.146835

                         10       1    1gx4              0.424000       0.105121
                         10       1    1gx3y             0.424000       0.278125
                         10       1    1gx3z             0.424000       0.278125
                         10       1    1gx2y2            0.424000       0.359058
                         10       1    1gx2yz            0.424000       0.621907
                         10       1    1gx2z2            0.424000       0.359058
                         10       1    1gxy3             0.424000       0.278125
                         10       1    1gxy2z            0.424000       0.621907
                         10       1    1gxyz2            0.424000       0.621907
                         10       1    1gxz3             0.424000       0.278125
                         10       1    1gy4              0.424000       0.105121
                         10       1    1gy3z             0.424000       0.278125
                         10       1    1gy2z2            0.424000       0.359058
                         10       1    1gyz3             0.424000       0.278125
                         10       1    1gz4              0.424000       0.105121

       Atomic covalent radius [Angstrom]:                                  0.770

       Atomic van der Waals radius [Angstrom]:                             1.700

     The atoms of this atomic kind are PAW atoms (GAPW):
       Hard Gaussian function radius:                                      1.512
       Rho0 radius:                                                        1.512
       Maximum GTO radius used for PAW projector construction:            24.566

     GAPW Soft Basis Set                                        aug-cc-pVQZ_soft

       Number of orbital shell sets:                                          10
       Number of orbital shells:                                              20
       Number of primitive Cartesian functions:                               19
       Number of Cartesian basis functions:                                  105
[...]
 flops    80 x     8 x    80            450764800       0.0%    100.0%      0.0%
 flops inhomo. stacks                           0       0.0%      0.0%      0.0%
 flops total                         1.557498E+09       0.0%    100.0%      0.0%
 flops max/rank                    686.368768E+06       0.0%    100.0%      0.0%
 matmuls inhomo. stacks                         0       0.0%      0.0%      0.0%
 matmuls total                              30616       0.0%    100.0%      0.0%
 number of processed stacks                 24306       0.0%    100.0%      0.0%
 average stack size                                     0.0       1.3       0.0
 marketing flops                     1.718170E+09
 -------------------------------------------------------------------------------
 # multiplications                           1752
 max memory usage/rank               1.869693E+09
 # max total images/rank                        2
 # max 3D layers                                1
 # MPI messages exchanged                 6503424
 MPI messages size (bytes):
  total size                         8.089487E+09
  min size                           0.000000E+00
  max size                         102.400000E+03
  average size                       1.243881E+03
 MPI breakdown and total messages size (bytes):
             size <=      128             6230296                        0
       128 < size <=     8192               82793                305110784
      8192 < size <=    32768              129645               2898283072
     32768 < size <=   131072               60690               4886092800
    131072 < size <=  4194304                   0                        0
   4194304 < size <= 16777216                   0                        0
  16777216 < size                               0                        0
 -------------------------------------------------------------------------------

 *** WARNING in dbcsr_mm.F:291 :: Using a non-square number of MPI ranks ***
 *** might lead to poor performance. Used ranks: 128 Suggested: 121 256  ***

 -------------------------------------------------------------------------------
 -                                                                             -
 -                      DBCSR MESSAGE PASSING PERFORMANCE                      -
 -                                                                             -
 -------------------------------------------------------------------------------
 ROUTINE             CALLS      AVE VOLUME [Bytes]
 MP_Bcast               24                     12.
 MP_Allreduce         7503                      8.
 MP_Alltoall         28626                  39378.
 MP_ISend           109366                   3791.
 MP_IRecv           108590                   3121.
 -------------------------------------------------------------------------------

 -------------------------------------------------------------------------------
 -                                                                             -
 -                                DBM STATISTICS                               -
 -                                                                             -
 -------------------------------------------------------------------------------
    M  x    N  x    K                                          COUNT     PERCENT
 -------------------------------------------------------------------------------

 -------------------------------------------------------------------------------
 -                                                                             -
 -                                GRID STATISTICS                              -
 -                                                                             -
 -------------------------------------------------------------------------------
 LP    KERNEL             BACKEND                              COUNT     PERCENT
 3     collocate ortho    CPU                                  89880       9.41%
 3     integrate ortho    CPU                                  88275       9.25%
 2     collocate ortho    CPU                                  86184       9.03%
 2     integrate ortho    CPU                                  84645       8.87%
 4     collocate ortho    CPU                                  72240       7.57%
 4     integrate ortho    CPU                                  70950       7.43%
 1     collocate ortho    CPU                                  67872       7.11%
 1     integrate ortho    CPU                                  66660       6.98%
 2     collocate general  CPU                                  49664       5.20%
 2     integrate general  CPU                                  48640       5.09%
 5     collocate ortho    CPU                                  44016       4.61%
 5     integrate ortho    CPU                                  43230       4.53%
 0     collocate ortho    CPU                                  37968       3.98%
 0     integrate ortho    CPU                                  37290       3.91%
 6     collocate ortho    CPU                                  22680       2.38%
 6     integrate ortho    CPU                                  22275       2.33%
 7     collocate ortho    CPU                                   8736       0.91%
 7     integrate ortho    CPU                                   8580       0.90%
 8     collocate ortho    CPU                                   2016       0.21%
 8     integrate ortho    CPU                                   1980       0.21%
 0     collocate general  CPU                                    512       0.05%
 0     integrate general  CPU                                    512       0.05%
 -------------------------------------------------------------------------------

 MEMORY| Estimated peak process memory [MiB]                                1784

 -------------------------------------------------------------------------------
 ----                             MULTIGRID INFO                            ----
 -------------------------------------------------------------------------------
 count for grid        1:       27396010          cutoff [a.u.]          600.00
 count for grid        2:        5906980          cutoff [a.u.]          200.00
 count for grid        3:        4405419          cutoff [a.u.]           66.67
 count for grid        4:        1658672          cutoff [a.u.]           22.22
 count for grid        5:         157536          cutoff [a.u.]            7.41
 total gridlevel count  :       39524617

 -------------------------------------------------------------------------------
 -                                                                             -
 -                         MESSAGE PASSING PERFORMANCE                         -
 -                                                                             -
 -------------------------------------------------------------------------------

 ROUTINE             CALLS      AVE VOLUME [Bytes]
 MP_Group                6
 MP_Bcast             1921                 329558.
 MP_Allreduce         8782                  28924.
 MP_Sync              1614
 MP_Alltoall          4420               18723439.
 MP_SendRecv         64008                 127152.
 MP_ISendRecv       140589                 113285.
 MP_Wait            180308
 MP_comm_split          81
 MP_ISend            33346                 683974.
 MP_IRecv            35946                 634453.
 -------------------------------------------------------------------------------


 -------------------------------------------------------------------------------
 -                                                                             -
 -                           R E F E R E N C E S                               -
 -                                                                             -
 -------------------------------------------------------------------------------
 
 CP2K version 2024.1 (Development Version), the CP2K developers group (2024).
 CP2K is freely available from https://www.cp2k.org/ .

 Kuehne,Thomas D.; Iannuzzi,Marcella; Del Ben,Mauro;
 Rybkin,Vladimir V.; Seewald,Patrick; Stein,Frederick; Laino,Teodoro;
 Khaliullin,Rustam Z.; Schuett,Ole; Schiffmann,Florian; Golze,Dorothea;
 Wilhelm,Jan; Chulkov,Sergey; Bani-Hashemian,Mohammad Hossein;
 Weber,Valery; Borstnik,Urban; Taillefumier,Mathieu;
 Jakobovits,Alice Shoshana; Lazzaro,Alfio; Pabst,Hans; Mueller,Tiziano;
 Schade,Robert; Guidon,Manuel; Andermatt,Samuel; Holmberg,Nico;
 Schenter,Gregory K.; Hehn,Anna; Bussy,Augustin; Belleflamme,Fabian;
 Tabacchi,Gloria; Gloess,Andreas; Lass,Michael; Bethune,Iain;
 Mundy,Christopher J.; Plessl,Christian; Watkins,Matt;
 VandeVondele,Joost; Krack,Matthias; Hutter,Juerg. 
 The Journal of Chemical Physics, 152 (19), (2020). 
 CP2K: An electronic structure and molecular dynamics software package -
 Quickstep: Efficient and accurate electronic structure calculations.
 https://doi.org/10.1063/5.0007045

 Schuett, Ole; Messmer, Peter; Hutter, Juerg; VandeVondele, Joost. 
 Electronic Structure Calculations on Graphics Processing Units, John
 Wiley & Sons, Ltd, 173-190 (2016). 
 GPU-Accelerated Sparse Matrix-Matrix Multiplication for
 Linear Scaling Density Functional Theory.
 https://doi.org/10.1002/9781118670712.ch8

 Heinecke, A; Henry, G; Hutchinson, M; Pabst, H. 
 Proceedings of Intl. Supercomputing Conference, 981-991 (2016). 
 LIBXSMM: Accelerating Small Matrix Multiplications
 by Runtime Code Generation.
 https://doi.org/10.1109/SC.2016.83

 Borstnik, U; VandeVondele, J; Weber, V; Hutter, J. 
 PARALLEL COMPUTING, 40 (5-6), 47-58 (2014). 
 Sparse matrix multiplication: The distributed block-compressed sparse
 row library.
 https://doi.org/10.1016/j.parco.2014.03.012

 Hutter, J; Iannuzzi, M; Schiffmann, F; VandeVondele, J. 
 WIREs Comput Mol Sci., 4 (1), 15-25 (2014). 
 CP2K: atomistic simulations of condensed matter systems.
 https://doi.org/10.1002/wcms.1159

 Guidon, M; Hutter, J; VandeVondele, J. 
 JOURNAL OF CHEMICAL THEORY AND COMPUTATION, 5 (11), 3010-3021 (2009). 
 Robust Periodic Hartree-Fock Exchange for Large-Scale Simulations Using
 Gaussian Basis Sets.
 https://doi.org/10.1021/ct900494g

 Guidon, M; Schiffmann, F; Hutter, J; VandeVondele, J. 
 JOURNAL OF CHEMICAL PHYSICS, 128 (21), 214104 (2008). 
 Ab initio molecular dynamics using hybrid density functionals.
 https://doi.org/10.1063/1.2931945

 Frigo, M; Johnson, SG. 
 PROCEEDINGS OF THE IEEE, 93 (2), 216-231 (2005). 
 The design and implementation of FFTW3.
 https://doi.org/10.1109/JPROC.2004.840301

 Iannuzzi, M; Chassaing, T; Wallman, T; Hutter, J. 
 CHIMIA, 59 (7-8), 499-503 (2005). 
 Ground and excited state density functional calculations with the
 Gaussian and augmented-plane-wave method.
 https://doi.org/10.2533/000942905777676164

 VandeVondele, J; Hutter, J. 
 JOURNAL OF CHEMICAL PHYSICS, 118 (10), 4365-4369 (2003). 
 An efficient orbital transformation method for electronic structure
 calculations.
 https://doi.org/10.1063/1.1543154

 Martin,Richard L.. 
 The Journal of Chemical Physics, 118 (11), 4775-4777 (2003). 
 Natural transition orbitals.
 https://doi.org/10.1063/1.1558471

 Lippert, G; Hutter, J; Parrinello, M. 
 THEORETICAL CHEMISTRY ACCOUNTS, 103 (2), 124-140 (1999). 
 The Gaussian and augmented-plane-wave density functional method for ab
 initio molecular dynamics simulations.
 https://doi.org/10.1007/s002140050523

 Krack, M; Parrinello, M. 
 PHYSICAL CHEMISTRY CHEMICAL PHYSICS, 2 (10), 2105-2112 (2000). 
 All-electron ab-initio molecular dynamics.
 https://doi.org/10.1039/b001167n

 Martyna, GJ; Tuckerman, ME. 
 JOURNAL OF CHEMICAL PHYSICS, 110 (6), 2810-2821 (1999). 
 A reciprocal space based method for treating long range interactions in
 ab initio and force-field-based calculations in clusters.
 https://doi.org/10.1063/1.477923

 Perdew, JP; Burke, K; Ernzerhof, M. 
 PHYSICAL REVIEW LETTERS, 77 (18), 3865-3868 (1996). 
 Generalized gradient approximation made simple.
 https://doi.org/10.1103/PhysRevLett.77.3865


 -------------------------------------------------------------------------------
 -                                                                             -
 -                                T I M I N G                                  -
 -                                                                             -
 -------------------------------------------------------------------------------
 SUBROUTINE                       CALLS  ASD         SELF TIME        TOTAL TIME
                                MAXIMUM       AVERAGE  MAXIMUM  AVERAGE  MAXIMUM
 CP2K                                 1  1.0     4.69     4.83 10044.62 10044.71
 qs_energies                          1  2.0     0.09     0.16  9976.97  9977.06
 qs_energies_properties               1  3.0     0.00     0.02  8411.08  8411.18
 tddfpt                               1  4.0     0.01     0.06  8411.08  8411.18
 tddfpt_soc_energies                  1  5.0     0.00     0.03  8363.62  8363.72
 tddfpt_energies                      2  6.0     0.00     0.05  8282.54  8282.63
 tddfpt_davidson_solver               4  7.0     0.03     0.09  7077.28  7077.35
 tddfpt_compute_Aop_evects           14  8.0     0.01     0.07  6323.38  6323.60
 fhxc_kernel                         14  9.0     0.02     0.09  3728.42  3728.61
 mp_waitall_1                    340586 14.3  2619.06  2674.67  2619.06  2674.67
 tddfpt_apply_hfx                    14  9.0     0.00     0.03  2306.24  2306.34
 integrate_four_center              305 10.8     0.20     0.94  1860.85  1863.99
 cp_dbcsr_sm_fm_multiply            886  9.5     0.02     0.04  1720.52  1732.55
 qs_rho_update_rho_low              168  9.2     0.01     0.05  1627.96  1628.94
 tddft_hfx_matrix                   280 10.0     0.02     0.05  1595.08  1598.10
 scf_env_do_scf                       1  3.0     0.00     0.01  1539.60  1539.62
 calculate_rho_elec                 168 10.2     0.89     1.28  1454.66  1456.53
 density_rs2pw                      168 11.2     0.02     0.05  1419.65  1424.52
 integrate_v_rspace                 165  9.8     0.01     0.03  1396.65  1400.89
 dbcsr_complete_redistribute       2874 11.5     0.10     0.20  1372.06  1396.01
 potential_pw2rs                    165 10.8     0.06     0.16  1348.75  1357.17
 scf_env_do_scf_inner_loop           25  4.0     0.01     0.05  1260.12  1260.25
 transfer_pw2rs                     921 11.8     0.01     0.05  1212.12  1221.08
 transfer_rs2pw                     938 12.1     0.01     0.05  1206.14  1216.65
 tddfpt_print_nto_analysis            2  7.0     0.02     0.07  1105.39  1105.72
 mp_sendrecv_dv                   64008 14.2  1040.64  1061.53  1040.64  1061.53
 cp_fm_syevd                         81  9.2     0.00     0.05  1042.76  1044.18
 copy_dbcsr_to_fm                   962 10.4     0.01     0.04   996.99  1014.13
 dbcsr_multiply_generic            1752 10.9     0.08     0.17   914.80   944.19
 cp_fm_redistribute_end              81 10.2   490.92   931.36   498.91   933.98
 cp_fm_geeig                         20  8.0     0.01     0.05   902.87   903.17
 cp_fm_syevd_base                    81 10.2   429.37   868.02   429.37   868.02
 integrate_four_center_getP         305 11.8     0.08     0.14   862.67   863.93
 pw_transfer                       3690 12.2     0.50     0.69   846.50   857.14
 fft_wrap_pw1pw2                   3403 13.2     0.05     0.16   844.68   855.15
 integrate_four_center_dist_KS      305 11.8     0.09     0.12   786.06   787.03
 fft3d_ps                          3403 15.2   102.21   114.56   774.29   784.34
 copy_fm_to_dbcsr                  1908 10.6     0.01     0.02   644.06   667.57
 mp_alltoall_d11v                 11925 12.7   610.20   655.42   610.20   655.42
 qs_ks_update_qs_env                 27  5.0     0.00     0.01   641.75   643.06
 rebuild_ks_matrix                   25  6.0     0.01     0.06   638.77   640.14
 qs_ks_build_kohn_sham_matrix        25  7.0     0.02     0.07   638.77   640.11
 fft_wrap_pw1pw2_600               2070 14.4    10.18    11.26   618.31   628.85
 mp_alltoall_z22v                  3403 17.2   545.98   567.79   545.98   567.79
 qs_scf_new_mos                      25  5.0     0.00     0.00   525.22   526.02
 qs_scf_loop_do_ot                   25  6.0     0.00     0.00   525.22   526.02
 transfer_pw2rs_70                  165 12.8     7.76    17.92   492.71   524.76
 ot_scf_mini                         25  7.0     0.00     0.00   508.92   509.77
 tddfpt_orthonormalize_psi1_psi      16  7.9     0.01     0.05   502.08   504.79
 mp_alltoall_i11v                  9666 12.5   497.67   498.86   497.67   498.86
 transfer_rs2pw_70                  168 13.2     5.24     7.36   463.94   479.77
 mp_sync                           1614 12.5   408.73   473.32   408.73   473.32
 tddfpt_apply_xc_analytic           140 10.0     2.14     2.61   438.04   440.65
 mp_sum_l                          7244 11.3   416.80   433.17   416.80   433.17
 cp_dbcsr_sm_fm_multiply_core       886 10.5     0.00     0.01   363.56   389.87
 xc_pw_derive                      1209 11.7     0.03     0.08   377.28   385.68
 transfer_pw2rs_30                  165 12.8     0.49     0.62   348.97   376.85
 transfer_rs2pw_30                  168 13.2     0.58     0.77   347.30   363.91
 mp_sum_dv                         4835 10.4   334.37   342.02   334.37   342.02
 mp_cart_sub                       1932 12.4   302.37   303.54   302.37   303.54
 yz_to_x                           1265 16.7    11.51    12.84   276.39   294.01
 tddfpt_apply_energy_diff            14  9.0     0.00     0.00   288.71   288.80
 dbcsr_desymmetrize_deep            963 11.4     0.02     0.03   270.68   288.50
 init_scf_loop                        2  4.0     0.00     0.03   278.40   278.46
 multiply_cannon                   1752 11.9     0.13     0.19   251.73   277.88
 cp_dbcsr_plus_fm_fm_t_native       141 10.0     0.00     0.02   271.74   273.65
 mp_waitany                       33346 13.9   196.70   270.52   196.70   270.52
 x_to_yz                           1472 15.9    18.62    27.59   265.40   270.06
 hfx_ks_matrix                       25  8.0     0.00     0.01   265.79   266.09
 ot_mini                             25  8.0     0.01     0.04   258.56   259.37
 transfer_pw2rs_10                  165 12.8     0.12     0.15   227.69   247.95
 transfer_rs2pw_10                  168 13.2     0.16     0.22   235.37   244.12
 xc_calc_2nd_deriv_analytical       700 11.1    55.22    67.20   239.58   240.98
 mp_alltoall_i22                   3864 12.5   206.74   236.57   206.74   236.57
 mp_sum_dm                         1841 11.1   229.14   231.69   229.14   231.69
 cp_fm_trace_a1b1t1_aa             3880  9.0     0.02     0.05   222.24   225.15
 sum_up_and_integrate                25  8.0     0.00     0.02   214.07   214.77
 xc_pw_divergence                   165 11.7     0.01     0.05   207.00   214.30
 qs_ot_get_derivative                25  9.0     0.00     0.02   211.35   212.07
 qs_ot_get_p                         27  7.9     0.00     0.01   207.90   208.40
 make_m2s                          3504 11.9     0.04     0.09   178.36   201.60
 make_images                       3504 12.9     0.08     0.13   178.26   201.50
 -------------------------------------------------------------------------------

 The number of warnings for this run is : 1
 
 -------------------------------------------------------------------------------
  **** **** ******  **  PROGRAM ENDED AT                 2024-02-02 12:09:00.844
 ***** ** ***  *** **   PROGRAM RAN ON                               nesh-clk548
 **    ****   ******    PROGRAM RAN BY                                  suphc355
 ***** **    ** ** **   PROGRAM PROCESS ID                                623106
  **** **  *******  **  PROGRAM STOPPED IN /gxfs_work/cau/suphc355/homologes/CH2
                                           X/AE/O
