
 DBCSR| CPU Multiplication driver                                           XSMM (U)
 DBCSR| Multrec recursion limit                                              512 (U)
 DBCSR| Multiplication stack size                                           1000 (D)
 DBCSR| Maximum elements for images                                    UNLIMITED (U)
 DBCSR| Multiplicative factor virtual images                                   1 (U)
 DBCSR| Use multiplication densification                                       T (D)
 DBCSR| Multiplication size stacks                                             3 (U)
 DBCSR| Use memory pool for CPU allocation                                     F (U)
 DBCSR| Number of 3D layers                                               SINGLE (U)
 DBCSR| Use MPI memory allocation                                              F (U)
 DBCSR| Use RMA algorithm                                                      F (U)
 DBCSR| Use Communication thread                                               T (U)
 DBCSR| Communication thread load                                             87 (D)
 DBCSR| MPI: My process id                                                     0
 DBCSR| MPI: Number of processes                                             128
 DBCSR| OMP: Current number of threads                                         1
 DBCSR| OMP: Max number of threads                                             1
 DBCSR| Split modifier for TAS multiplication algorithm                  1.0E+00 (U)


  **** **** ******  **  PROGRAM STARTED AT               2024-02-07 15:49:48.044
 ***** ** ***  *** **   PROGRAM STARTED ON                           nesh-clk558
 **    ****   ******    PROGRAM STARTED BY                              suphc355
 ***** **    ** ** **   PROGRAM PROCESS ID                               2105342
  **** **  *******  **  PROGRAM STARTED IN /gxfs_work/cau/suphc355/homologes/CH2
                                           X/AE/O

 CP2K| version string:                 CP2K version 2024.1 (Development Version)
 CP2K| source code revision number:                                  git:b6f9133
 CP2K| cp2kflags: omp libint fftw3 libxc libgrpp parallel mpi_f08 scalapack cosm
 CP2K|            a xsmm spglib mkl
 CP2K| is freely available from                            https://www.cp2k.org/
 CP2K| Program compiled at                          Fr 26. Jan 09:14:30 CET 2024
 CP2K| Program compiled on                                           nesh-login3
 CP2K| Program compiled for                                                local
 CP2K| Data directory path            /gxfs_home/cau/suphc355/software/cp2k/data
 CP2K| Input file name                                                AE_vel.inp
 
 GLOBAL| Force Environment number                                              1
 GLOBAL| Basis set file name                                 ../../../basis_zora
 GLOBAL| Potential file name                                           POTENTIAL
 GLOBAL| MM Potential file name                                     MM_POTENTIAL
 GLOBAL| Coordinate file name                                            opt.xyz
 GLOBAL| Method name                                                        CP2K
 GLOBAL| Project name                                                    CH2O_AE
 GLOBAL| Run type                                                         ENERGY
 GLOBAL| FFT library                                                       FFTW3
 GLOBAL| Diagonalization library                                       ScaLAPACK
 GLOBAL| DGEMM library                                                      BLAS
 GLOBAL| Orthonormality check for eigenvectors                          DISABLED
 GLOBAL| Matrix multiplication library                                     COSMA
 GLOBAL| All-to-all communication in single precision                          F
 GLOBAL| FFTs using library dependent lengths                                  F
 GLOBAL| Grid backend                                                       AUTO
 GLOBAL| Global print level                                               MEDIUM
 GLOBAL| MPI I/O enabled                                                       T
 GLOBAL| Total number of message passing processes                           128
 GLOBAL| Number of threads for this process                                    1
 GLOBAL| This output is from process                                           0
 GLOBAL| Stack size for threads created by OpenMP (OMP_STACKSIZE)        default
 GLOBAL| CPU model name                Intel(R) Xeon(R) Gold 6226R CPU @ 2.90GHz
 GLOBAL| CPUID                                                              1003

 MEMORY| system memory details [Kb]
 MEMORY|                        rank 0           min           max       average
 MEMORY| MemTotal            196683224     196683180     196683224     196683213
 MEMORY| MemFree             176409284     176409284     177208740     176899575
 MEMORY| Buffers                426084        337040        426084        382377
 MEMORY| Cached                 891648        528756        891648        698497
 MEMORY| Slab                   734724        543868        734724        603446
 MEMORY| SReclaimable           163016        127940        163016        139356
 MEMORY| MemLikelyFree       177890032     177890032     178270816     178119805


 *** Fundamental physical constants (SI units) ***

 *** Literature: B. J. Mohr and B. N. Taylor,
 ***             CODATA recommended values of the fundamental physical
 ***             constants: 2006, Web Version 5.1
 ***             http://physics.nist.gov/constants

 Speed of light in vacuum [m/s]                             2.99792458000000E+08
 Magnetic constant or permeability of vacuum [N/A**2]       1.25663706143592E-06
 Electric constant or permittivity of vacuum [F/m]          8.85418781762039E-12
 Planck constant (h) [J*s]                                  6.62606896000000E-34
 Planck constant (h-bar) [J*s]                              1.05457162825177E-34
 Elementary charge [C]                                      1.60217648700000E-19
 Electron mass [kg]                                         9.10938215000000E-31
 Electron g factor [ ]                                     -2.00231930436220E+00
 Proton mass [kg]                                           1.67262163700000E-27
 Fine-structure constant                                    7.29735253760000E-03
 Rydberg constant [1/m]                                     1.09737315685270E+07
 Avogadro constant [1/mol]                                  6.02214179000000E+23
 Boltzmann constant [J/K]                                   1.38065040000000E-23
 Atomic mass unit [kg]                                      1.66053878200000E-27
 Bohr radius [m]                                            5.29177208590000E-11

 *** Conversion factors ***

 [u] -> [a.u.]                                              1.82288848426455E+03
 [Angstrom] -> [Bohr] = [a.u.]                              1.88972613288564E+00
 [a.u.] = [Bohr] -> [Angstrom]                              5.29177208590000E-01
 [a.u.] -> [s]                                              2.41888432650478E-17
 [a.u.] -> [fs]                                             2.41888432650478E-02
 [a.u.] -> [J]                                              4.35974393937059E-18
 [a.u.] -> [N]                                              8.23872205491840E-08
 [a.u.] -> [K]                                              3.15774647902944E+05
 [a.u.] -> [kJ/mol]                                         2.62549961709828E+03
 [a.u.] -> [kcal/mol]                                       6.27509468713739E+02
 [a.u.] -> [Pa]                                             2.94210107994716E+13
 [a.u.] -> [bar]                                            2.94210107994716E+08
 [a.u.] -> [atm]                                            2.90362800883016E+08
 [a.u.] -> [eV]                                             2.72113838565563E+01
 [a.u.] -> [Hz]                                             6.57968392072181E+15
 [a.u.] -> [1/cm] (wave numbers)                            2.19474631370540E+05
 [a.u./Bohr**2] -> [1/cm]                                   5.14048714338585E+03
 

 CELL_TOP| Volume [angstrom^3]:                                      8000.000000
 CELL_TOP| Vector a [angstrom    20.000     0.000     0.000   |a| =    20.000000
 CELL_TOP| Vector b [angstrom     0.000    20.000     0.000   |b| =    20.000000
 CELL_TOP| Vector c [angstrom     0.000     0.000    20.000   |c| =    20.000000
 CELL_TOP| Angle (b,c), alpha [degree]:                                90.000000
 CELL_TOP| Angle (a,c), beta  [degree]:                                90.000000
 CELL_TOP| Angle (a,b), gamma [degree]:                                90.000000
 CELL_TOP| Numerically orthorhombic:                                         YES
 CELL_TOP| Periodicity                                                      NONE
 
 GENERATE|  Preliminary Number of Bonds generated:                             0
 GENERATE|  Achieved consistency in connectivity generation.

 CELL| Volume [angstrom^3]:                                          8000.000000
 CELL| Vector a [angstrom]:      20.000     0.000     0.000   |a| =    20.000000
 CELL| Vector b [angstrom]:       0.000    20.000     0.000   |b| =    20.000000
 CELL| Vector c [angstrom]:       0.000     0.000    20.000   |c| =    20.000000
 CELL| Angle (b,c), alpha [degree]:                                    90.000000
 CELL| Angle (a,c), beta  [degree]:                                    90.000000
 CELL| Angle (a,b), gamma [degree]:                                    90.000000
 CELL| Numerically orthorhombic:                                             YES
 CELL| Periodicity                                                          NONE

 CELL_REF| Volume [angstrom^3]:                                      8000.000000
 CELL_REF| Vector a [angstrom    20.000     0.000     0.000   |a| =    20.000000
 CELL_REF| Vector b [angstrom     0.000    20.000     0.000   |b| =    20.000000
 CELL_REF| Vector c [angstrom     0.000     0.000    20.000   |c| =    20.000000
 CELL_REF| Angle (b,c), alpha [degree]:                                90.000000
 CELL_REF| Angle (a,c), beta  [degree]:                                90.000000
 CELL_REF| Angle (a,b), gamma [degree]:                                90.000000
 CELL_REF| Numerically orthorhombic:                                         YES
 CELL_REF| Periodicity                                                      NONE

 *******************************************************************************
 *******************************************************************************
 **                                                                           **
 **     #####                         ##              ##                      **
 **    ##   ##            ##          ##              ##                      **
 **   ##     ##                       ##            ######                    **
 **   ##     ##  ##   ##  ##   #####  ##  ##   ####   ##    #####    #####    **
 **   ##     ##  ##   ##  ##  ##      ## ##   ##      ##   ##   ##  ##   ##   **
 **   ##  ## ##  ##   ##  ##  ##      ####     ###    ##   ######   ######    **
 **    ##  ###   ##   ##  ##  ##      ## ##      ##   ##   ##       ##        **
 **     #######   #####   ##   #####  ##  ##  ####    ##    #####   ##        **
 **           ##                                                    ##        **
 **                                                                           **
 **                                                ... make the atoms dance   **
 **                                                                           **
 **            Copyright (C) by CP2K developers group (2000-2024)             **
 **                      J. Chem. Phys. 152, 194103 (2020)                    **
 **                                                                           **
 *******************************************************************************

 DFT| Spin restricted Kohn-Sham (RKS) calculation                            RKS
 DFT| Multiplicity                                                             1
 DFT| Number of spin states                                                    1
 DFT| Charge                                                                   0
 DFT| Self-interaction correction (SIC)                                       NO
 DFT| Cutoffs: density                                              1.000000E-10
 DFT|          gradient                                             1.000000E-10
 DFT|          tau                                                  1.000000E-10
 DFT|          cutoff_smoothing_range                               0.000000E+00
 DFT| XC density smoothing                                                  NONE
 DFT| XC derivatives                                                          PW

 FUNCTIONAL| PBE:
 FUNCTIONAL| J.P.Perdew, K.Burke, M.Ernzerhof, Phys. Rev. Letter, vol. 77, n 18,
 FUNCTIONAL|  pp. 3865-3868, (1996)sx=0.750sc=1.000{spin unpolarized}           


 QS| Method:                                                                GAPW
 QS| Density plane wave grid type                        NON-SPHERICAL FULLSPACE
 QS| Number of grid levels:                                                    5
 QS| Density cutoff [a.u.]:                                                600.0
 QS| Multi grid cutoff [a.u.]: 1) grid level                               600.0
 QS|                           2) grid level                               200.0
 QS|                           3) grid level                                66.7
 QS|                           4) grid level                                22.2
 QS|                           5) grid level                                 7.4
 QS| Grid level progression factor:                                          3.0
 QS| Relative density cutoff [a.u.]:                                        40.0
 QS| Interaction thresholds: eps_pgf_orb:                                1.0E-30
 QS|                         eps_filter_matrix:                          0.0E+00
 QS|                         eps_core_charge:                            1.0E-17
 QS|                         eps_rho_gspace:                             1.0E-15
 QS|                         eps_rho_rspace:                             1.0E-15
 QS|                         eps_gvg_rspace:                             3.2E-08
 QS|                         eps_ppl:                                    1.0E-02
 QS|                         eps_ppnl:                                   3.2E-10
 QS| GAPW|      One center basis from orbital basis primitives
 QS| GAPW|                   eps_fit:                                    1.0E-04
 QS| GAPW|                   eps_iso:                                    1.0E-12
 QS| GAPW|                   eps_svd:                                    1.0E-08
 QS| GAPW|                   eps_cpc:                                    1.0E-15
 QS| GAPW|   atom-r-grid: quadrature:                                     GC_LOG
 QS| GAPW|      atom-s-grid:  max l :                                          6
 QS| GAPW|      max_l_rho0 :                                                   2


 ATOMIC KIND INFORMATION

  1. Atomic kind: O                                     Number of atoms:       1

     Orbital Basis Set                                                  TZP-ZORA

       Number of orbital shell sets:                                          11
       Number of orbital shells:                                              11
       Number of primitive Cartesian functions:                               19
       Number of Cartesian basis functions:                                   36
       Number of spherical basis functions:                                   31
       Norm type:                                                              2

       Normalised Cartesian orbitals:

                        Set   Shell   Orbital            Exponent    Coefficient

                          1       1    1s            12870.845084       1.670134
                                                      1952.247772       2.965847
                                                       454.029695       4.900265
                                                       130.283728       7.253134
                                                        42.792733       8.736813

                          2       1    1s               15.446290       3.273046
                                                         5.877661       1.213404

                          3       1    1s                1.534264       0.982506

                          4       1    1s                0.816007       0.611900

                          5       1    1s                0.260111       0.259585

                          6       1    1px              63.352470       3.122975
                                                        14.669976       3.412732
                                                         4.466319       3.006132
                                                         1.531280       1.705805
                          6       1    1py              63.352470       3.122975
                                                        14.669976       3.412732
                                                         4.466319       3.006132
                                                         1.531280       1.705805
                          6       1    1pz              63.352470       3.122975
                                                        14.669976       3.412732
                                                         4.466319       3.006132
                                                         1.531280       1.705805

                          7       1    1px               0.544005       0.665954
                          7       1    1py               0.544005       0.665954
                          7       1    1pz               0.544005       0.665954

                          8       1    1px               0.179985       0.167103
                          8       1    1py               0.179985       0.167103
                          8       1    1pz               0.179985       0.167103

                          9       1    1dx2              2.390160       7.562348
                          9       1    1dxy              2.390160      13.098371
                          9       1    1dxz              2.390160      13.098371
                          9       1    1dy2              2.390160       7.562348
                          9       1    1dyz              2.390160      13.098371
                          9       1    1dz2              2.390160       7.562348

                         10       1    1dx2              0.681833       0.842066
                         10       1    1dxy              0.681833       1.458501
                         10       1    1dxz              0.681833       1.458501
                         10       1    1dy2              0.681833       0.842066
                         10       1    1dyz              0.681833       1.458501
                         10       1    1dz2              0.681833       0.842066

                         11       1    1fx3              1.510948       3.726197
                         11       1    1fx2y             1.510948       8.332031
                         11       1    1fx2z             1.510948       8.332031
                         11       1    1fxy2             1.510948       8.332031
                         11       1    1fxyz             1.510948      14.431501
                         11       1    1fxz2             1.510948       8.332031
                         11       1    1fy3              1.510948       3.726197
                         11       1    1fy2z             1.510948       8.332031
                         11       1    1fyz2             1.510948       8.332031
                         11       1    1fz3              1.510948       3.726197

       Atomic covalent radius [Angstrom]:                                  0.730

       Atomic van der Waals radius [Angstrom]:                             1.520

     The atoms of this atomic kind are PAW atoms (GAPW):
       Hard Gaussian function radius:                                      1.512
       Rho0 radius:                                                        1.512
       Maximum GTO radius used for PAW projector construction:            24.566

     GAPW Soft Basis Set                                           TZP-ZORA_soft

       Number of orbital shell sets:                                          11
       Number of orbital shells:                                              11
       Number of primitive Cartesian functions:                                9
       Number of Cartesian basis functions:                                   36
       Number of spherical basis functions:                                   31
       Norm type:                                                              2

       Normalised Cartesian orbitals:

                        Set   Shell   Orbital            Exponent    Coefficient

                          1       1    1s         

                          2       1    1s         

                          3       1    1s                1.534264       0.982506

                          4       1    1s                0.816007       0.611900

                          5       1    1s                0.260111       0.259585

                          6       1    1px               1.531280       1.705805
                          6       1    1py               1.531280       1.705805
                          6       1    1pz               1.531280       1.705805

                          7       1    1px               0.544005       0.665954
                          7       1    1py               0.544005       0.665954
                          7       1    1pz               0.544005       0.665954

                          8       1    1px               0.179985       0.167103
                          8       1    1py               0.179985       0.167103
                          8       1    1pz               0.179985       0.167103

                          9       1    1dx2              2.390160       7.562348
                          9       1    1dxy              2.390160      13.098371
                          9       1    1dxz              2.390160      13.098371
                          9       1    1dy2              2.390160       7.562348
                          9       1    1dyz              2.390160      13.098371
                          9       1    1dz2              2.390160       7.562348

                         10       1    1dx2              0.681833       0.842066
                         10       1    1dxy              0.681833       1.458501
                         10       1    1dxz              0.681833       1.458501
                         10       1    1dy2              0.681833       0.842066
                         10       1    1dyz              0.681833       1.458501
                         10       1    1dz2              0.681833       0.842066

                         11       1    1fx3              1.510948       3.726197
                         11       1    1fx2y             1.510948       8.332031
                         11       1    1fx2z             1.510948       8.332031
                         11       1    1fxy2             1.510948       8.332031
                         11       1    1fxyz             1.510948      14.431501
                         11       1    1fxz2             1.510948       8.332031
                         11       1    1fy3              1.510948       3.726197
                         11       1    1fy2z             1.510948       8.332031
                         11       1    1fyz2             1.510948       8.332031
                         11       1    1fz3              1.510948       3.726197

     AE Potential information for                                            ALL

       Description:                                       All-electron potential
                                          Krack, Parrinello, PCCP 2, 2105 (2000)

       Gaussian exponent of the core charge distribution:               8.154466
       Electronic configuration (s p d ...):                           4   4   0

  2. Atomic kind: C                                     Number of atoms:       1

     Orbital Basis Set                                                  TZP-ZORA

       Number of orbital shell sets:                                          11
       Number of orbital shells:                                              11
       Number of primitive Cartesian functions:                               19
       Number of Cartesian basis functions:                                   36
       Number of spherical basis functions:                                   31
       Norm type:                                                              2

       Normalised Cartesian orbitals:

                        Set   Shell   Orbital            Exponent    Coefficient

                          1       1    1s             7615.059991       1.058240
                                                      1145.086846       1.933008
                                                       261.919524       3.218528
                                                        74.668342       4.773822
                                                        24.405512       5.743063

                          2       1    1s                8.686790       2.126261
                                                         3.236576       0.778233

                          3       1    1s                1.301800       0.868597

                          4       1    1s                0.527689       0.441259

                          5       1    1s                0.156945       0.177714

                          6       1    1px              34.507679       1.410559
                                                         7.913044       1.480250
                                                         2.366155       1.321166
                                                         0.811724       0.784026
                          6       1    1py              34.507679       1.410559
                                                         7.913044       1.480250
                                                         2.366155       1.321166
                                                         0.811724       0.784026
                          6       1    1pz              34.507679       1.410559
                                                         7.913044       1.480250
                                                         2.366155       1.321166
                                                         0.811724       0.784026

                          7       1    1px               0.312289       0.332763
                          7       1    1py               0.312289       0.332763
                          7       1    1pz               0.312289       0.332763

                          8       1    1px               0.114003       0.094424
                          8       1    1py               0.114003       0.094424
                          8       1    1pz               0.114003       0.094424

                          9       1    1dx2              1.154049       2.114959
                          9       1    1dxy              1.154049       3.663216
                          9       1    1dxz              1.154049       3.663216
                          9       1    1dy2              1.154049       2.114959
                          9       1    1dyz              1.154049       3.663216
                          9       1    1dz2              1.154049       2.114959

                         10       1    1dx2              0.351129       0.263618
                         10       1    1dxy              0.351129       0.456600
                         10       1    1dxz              0.351129       0.456600
                         10       1    1dy2              0.351129       0.263618
                         10       1    1dyz              0.351129       0.456600
                         10       1    1dz2              0.351129       0.263618

                         11       1    1fx3              0.819312       0.940190
                         11       1    1fx2y             0.819312       2.102328
                         11       1    1fx2z             0.819312       2.102328
                         11       1    1fxy2             0.819312       2.102328
                         11       1    1fxyz             0.819312       3.641338
                         11       1    1fxz2             0.819312       2.102328
                         11       1    1fy3              0.819312       0.940190
                         11       1    1fy2z             0.819312       2.102328
                         11       1    1fyz2             0.819312       2.102328
                         11       1    1fz3              0.819312       0.940190

       Atomic covalent radius [Angstrom]:                                  0.770

       Atomic van der Waals radius [Angstrom]:                             1.700

     The atoms of this atomic kind are PAW atoms (GAPW):
       Hard Gaussian function radius:                                      1.512
       Rho0 radius:                                                        1.512
       Maximum GTO radius used for PAW projector construction:            24.566

     GAPW Soft Basis Set                                           TZP-ZORA_soft

       Number of orbital shell sets:                                          11
       Number of orbital shells:                                              11
       Number of primitive Cartesian functions:                               11
       Number of Cartesian basis functions:                                   36
       Number of spherical basis functions:                                   31
       Norm type:                                                              2

       Normalised Cartesian orbitals:

                        Set   Shell   Orbital            Exponent    Coefficient

                          1       1    1s         

                          2       1    1s                3.236576       0.778233

                          3       1    1s                1.301800       0.868597

                          4       1    1s                0.527689       0.441259

                          5       1    1s                0.156945       0.177714

                          6       1    1px               2.366155       1.321166
                                                         0.811724       0.784026
                          6       1    1py               2.366155       1.321166
                                                         0.811724       0.784026
                          6       1    1pz               2.366155       1.321166
                                                         0.811724       0.784026

                          7       1    1px               0.312289       0.332763
                          7       1    1py               0.312289       0.332763
                          7       1    1pz               0.312289       0.332763

                          8       1    1px               0.114003       0.094424
                          8       1    1py               0.114003       0.094424
                          8       1    1pz               0.114003       0.094424

                          9       1    1dx2              1.154049       2.114959
                          9       1    1dxy              1.154049       3.663216
                          9       1    1dxz              1.154049       3.663216
                          9       1    1dy2              1.154049       2.114959
                          9       1    1dyz              1.154049       3.663216
                          9       1    1dz2              1.154049       2.114959

                         10       1    1dx2              0.351129       0.263618
                         10       1    1dxy              0.351129       0.456600
                         10       1    1dxz              0.351129       0.456600
                         10       1    1dy2              0.351129       0.263618
                         10       1    1dyz              0.351129       0.456600
                         10       1    1dz2              0.351129       0.263618

                         11       1    1fx3              0.819312       0.940190
                         11       1    1fx2y             0.819312       2.102328
                         11       1    1fx2z             0.819312       2.102328
                         11       1    1fxy2             0.819312       2.102328
                         11       1    1fxyz             0.819312       3.641338
                         11       1    1fxz2             0.819312       2.102328
                         11       1    1fy3              0.819312       0.940190
                         11       1    1fy2z             0.819312       2.102328
                         11       1    1fyz2             0.819312       2.102328
                         11       1    1fz3              0.819312       0.940190

     AE Potential information for                                            ALL

       Description:                                       All-electron potential
                                          Krack, Parrinello, PCCP 2, 2105 (2000)

       Gaussian exponent of the core charge distribution:               4.109048
       Electronic configuration (s p d ...):                           4   2   0

  3. Atomic kind: H                                     Number of atoms:       2

     Orbital Basis Set                                                  TZP-ZORA

       Number of orbital shell sets:                                           6
       Number of orbital shells:                                               6
       Number of primitive Cartesian functions:                                8
       Number of Cartesian basis functions:                                   15
       Number of spherical basis functions:                                   14
       Norm type:                                                              2

       Normalised Cartesian orbitals:

                        Set   Shell   Orbital            Exponent    Coefficient

                          1       1    1s               34.877584       0.254499
                                                         5.233973       0.449285
                                                         1.185033       0.695456

                          2       1    1s                0.328339       0.309138

                          3       1    1s                0.110319       0.136426

                          4       1    1px               0.718844       0.943482
                          4       1    1py               0.718844       0.943482
                          4       1    1pz               0.718844       0.943482

                          5       1    1px               0.350000       0.383729
                          5       1    1py               0.350000       0.383729
                          5       1    1pz               0.350000       0.383729

                          6       1    1dx2              1.075060       1.868171
                          6       1    1dxy              1.075060       3.235768
                          6       1    1dxz              1.075060       3.235768
                          6       1    1dy2              1.075060       1.868171
                          6       1    1dyz              1.075060       3.235768
                          6       1    1dz2              1.075060       1.868171

       Atomic covalent radius [Angstrom]:                                  0.320

       Atomic van der Waals radius [Angstrom]:                             1.090

     The atoms of this atomic kind are PAW atoms (GAPW):
       Hard Gaussian function radius:                                      1.200
       Rho0 radius:                                                        1.200
       Maximum GTO radius used for PAW projector construction:            24.566

     GAPW Soft Basis Set                                           TZP-ZORA_soft

       Number of orbital shell sets:                                           6
       Number of orbital shells:                                               6
       Number of primitive Cartesian functions:                                7
       Number of Cartesian basis functions:                                   15
       Number of spherical basis functions:                                   14
       Norm type:                                                              2

       Normalised Cartesian orbitals:

                        Set   Shell   Orbital            Exponent    Coefficient

                          1       1    1s                5.233973       0.449285
                                                         1.185033       0.695456

                          2       1    1s                0.328339       0.309138

                          3       1    1s                0.110319       0.136426

                          4       1    1px               0.718844       0.943482
                          4       1    1py               0.718844       0.943482
                          4       1    1pz               0.718844       0.943482

                          5       1    1px               0.350000       0.383729
                          5       1    1py               0.350000       0.383729
                          5       1    1pz               0.350000       0.383729

                          6       1    1dx2              1.075060       1.868171
                          6       1    1dxy              1.075060       3.235768
                          6       1    1dxz              1.075060       3.235768
                          6       1    1dy2              1.075060       1.868171
                          6       1    1dyz              1.075060       3.235768
                          6       1    1dz2              1.075060       1.868171

     AE Potential information for                                            ALL

       Description:                                       All-electron potential
                                          Krack, Parrinello, PCCP 2, 2105 (2000)

       Gaussian exponent of the core charge distribution:              12.500000
       Electronic configuration (s p d ...):                           1   0   0


 MOLECULE KIND INFORMATION


 All atoms are their own molecule, skipping detailed information


 TOTAL NUMBERS AND MAXIMUM NUMBERS

  Total number of            - Atomic kinds:                                   3
                             - Atoms:                                          4
                             - Shell sets:                                    34
                             - Shells:                                        34
                             - Primitive Cartesian functions:                 54
                             - Cartesian basis functions:                    102
                             - Spherical basis functions:                     90

  Maximum angular momentum of the orbital basis functions:                     3


 MODULE QUICKSTEP: ATOMIC COORDINATES IN ANGSTROM

   Atom Kind Element         X             Y             Z       Z(eff)     Mass
      1    1 O     8     10.184868     10.913653      9.892701   8.0000  15.9994
      2    2 C     6     10.059528      9.709711      9.964854   6.0000  12.0107
      3    3 H     1      9.815132      9.086347      9.072018   1.0000   1.0079
      4    3 H     1     10.184006      9.159703     10.927982   1.0000   1.0079



 SCF PARAMETERS         Density guess:                                   RESTART
                        --------------------------------------------------------
                        max_scf:                                              20
                        max_scf_history:                                       0
                        max_diis:                                              4
                        --------------------------------------------------------
                        eps_scf:                                        1.00E-07
                        eps_scf_history:                                0.00E+00
                        eps_diis:                                       1.00E-01
                        eps_eigval:                                     1.00E-05
                        --------------------------------------------------------
                        level_shift [a.u.]:                             0.000000
                        --------------------------------------------------------
                        Outer loop SCF in use 
                        No variables optimised in outer loop
                        eps_scf                                         1.00E-07
                        max_scf                                               50
                        No outer loop optimization
                        step_size                                       5.00E-01

 PW_GRID| Information for grid number                                          1
 PW_GRID| Grid distributed over                                   128 processors
 PW_GRID| Real space group dimensions                                   128    1
 PW_GRID| the grid is blocked:                                                NO
 PW_GRID| Cutoff [a.u.]                                                   1200.0
 PW_GRID| spherical cutoff:                                                   NO
 PW_GRID|   Bounds   1           -300     299                Points:         600
 PW_GRID|   Bounds   2           -300     299                Points:         600
 PW_GRID|   Bounds   3           -300     299                Points:         600
 PW_GRID| Volume element (a.u.^3)  0.2499E-03     Volume (a.u.^3)     53986.6767
 PW_GRID| Grid span                                                    FULLSPACE
 PW_GRID|   Distribution                         Average         Max         Min
 PW_GRID|   G-Vectors                          1687500.0     1687800     1687200
 PW_GRID|   G-Rays                                2812.5        2813        2812
 PW_GRID|   Real Space Points                  1687500.0     1800000     1440000

 PW_GRID| Information for grid number                                          2
 PW_GRID| Number of the reference grid                                         1
 PW_GRID| Grid distributed over                                   128 processors
 PW_GRID| Real space group dimensions                                   128    1
 PW_GRID| the grid is blocked:                                                NO
 PW_GRID| Cutoff [a.u.]                                                    600.0
 PW_GRID| spherical cutoff:                                                   NO
 PW_GRID|   Bounds   1           -216     215                Points:         432
 PW_GRID|   Bounds   2           -216     215                Points:         432
 PW_GRID|   Bounds   3           -216     215                Points:         432
 PW_GRID| Volume element (a.u.^3)  0.6696E-03     Volume (a.u.^3)     53986.6767
 PW_GRID| Grid span                                                    FULLSPACE
 PW_GRID|   Distribution                         Average         Max         Min
 PW_GRID|   G-Vectors                           629856.0      630288      629424
 PW_GRID|   G-Rays                                1458.0        1459        1457
 PW_GRID|   Real Space Points                   629856.0      746496      559872

 PW_GRID| Information for grid number                                          3
 PW_GRID| Number of the reference grid                                         2
 PW_GRID| Grid distributed over                                   128 processors
 PW_GRID| Real space group dimensions                                   128    1
 PW_GRID| the grid is blocked:                                                NO
 PW_GRID| Cutoff [a.u.]                                                    200.0
 PW_GRID| spherical cutoff:                                                   NO
 PW_GRID|   Bounds   1           -121     121                Points:         243
 PW_GRID|   Bounds   2           -121     121                Points:         243
 PW_GRID|   Bounds   3           -121     121                Points:         243
 PW_GRID| Volume element (a.u.^3)  0.3762E-02     Volume (a.u.^3)     53986.6767
 PW_GRID| Grid span                                                    FULLSPACE
 PW_GRID|   Distribution                         Average         Max         Min
 PW_GRID|   G-Vectors                           112100.8      112266      111780
 PW_GRID|   G-Rays                                 461.3         462         460
 PW_GRID|   Real Space Points                   112100.8      118098       59049

 PW_GRID| Information for grid number                                          4
 PW_GRID| Number of the reference grid                                         2
 PW_GRID| Grid distributed over                                   128 processors
 PW_GRID| Real space group dimensions                                   128    1
 PW_GRID| the grid is blocked:                                                NO
 PW_GRID| Cutoff [a.u.]                                                     66.7
 PW_GRID| spherical cutoff:                                                   NO
 PW_GRID|   Bounds   1            -72      71                Points:         144
 PW_GRID|   Bounds   2            -72      71                Points:         144
 PW_GRID|   Bounds   3            -72      71                Points:         144
 PW_GRID| Volume element (a.u.^3)  0.1808E-01     Volume (a.u.^3)     53986.6767
 PW_GRID| Grid span                                                    FULLSPACE
 PW_GRID|   Distribution                         Average         Max         Min
 PW_GRID|   G-Vectors                            23328.0       23472       23184
 PW_GRID|   G-Rays                                 162.0         163         161
 PW_GRID|   Real Space Points                    23328.0       41472       20736

 PW_GRID| Information for grid number                                          5
 PW_GRID| Number of the reference grid                                         2
 PW_GRID| Grid distributed over                                   128 processors
 PW_GRID| Real space group dimensions                                     8   16
 PW_GRID| the grid is blocked:                                                NO
 PW_GRID| Cutoff [a.u.]                                                     22.2
 PW_GRID| spherical cutoff:                                                   NO
 PW_GRID|   Bounds   1            -40      40                Points:          81
 PW_GRID|   Bounds   2            -40      40                Points:          81
 PW_GRID|   Bounds   3            -40      40                Points:          81
 PW_GRID| Volume element (a.u.^3)  0.1016         Volume (a.u.^3)     53986.6767
 PW_GRID| Grid span                                                    FULLSPACE
 PW_GRID|   Distribution                         Average         Max         Min
 PW_GRID|   G-Vectors                             4151.9        4293        4050
 PW_GRID|   G-Rays                                  51.3          53          50
 PW_GRID|   Real Space Points                     4151.9        5346        4050

 PW_GRID| Information for grid number                                          6
 PW_GRID| Number of the reference grid                                         2
 PW_GRID| Grid distributed over                                   128 processors
 PW_GRID| Real space group dimensions                                     8   16
 PW_GRID| the grid is blocked:                                                NO
 PW_GRID| Cutoff [a.u.]                                                      7.4
 PW_GRID| spherical cutoff:                                                   NO
 PW_GRID|   Bounds   1            -24      23                Points:          48
 PW_GRID|   Bounds   2            -24      23                Points:          48
 PW_GRID|   Bounds   3            -24      23                Points:          48
 PW_GRID| Volume element (a.u.^3)  0.4882         Volume (a.u.^3)     53986.6767
 PW_GRID| Grid span                                                    FULLSPACE
 PW_GRID|   Distribution                         Average         Max         Min
 PW_GRID|   G-Vectors                              864.0         912         816
 PW_GRID|   G-Rays                                  18.0          19          17
 PW_GRID|   Real Space Points                      864.0         864         864

 POISSON| Solver                                          Martyna-Tuckerman (MT)
 POISSON| MT| Alpha                                                        7.000
 POISSON| MT| Relative cutoff                                                2.0
 POISSON| Periodicity                                                       NONE

 RS_GRID| Information for grid number                                          2
 RS_GRID|   Bounds   1           -216     215                Points:         432
 RS_GRID|   Bounds   2           -216     215                Points:         432
 RS_GRID|   Bounds   3           -216     215                Points:         432
 RS_GRID| Real space distribution over                                  4 groups
 RS_GRID| Real space distribution along direction                              1
 RS_GRID| Border size                                                         37
 RS_GRID| Real space distribution over                                  4 groups
 RS_GRID| Real space distribution along direction                              2
 RS_GRID| Border size                                                         37
 RS_GRID| Real space distribution over                                  8 groups
 RS_GRID| Real space distribution along direction                              3
 RS_GRID| Border size                                                         37
 RS_GRID|   Distribution                         Average         Max         Min
 RS_GRID|   Planes                                 182.0         182         182
 RS_GRID|   Distribution                         Average         Max         Min
 RS_GRID|   Planes                                 182.0         182         182
 RS_GRID|   Distribution                         Average         Max         Min
 RS_GRID|   Planes                                 128.0         128         128

 RS_GRID| Information for grid number                                          3
 RS_GRID|   Bounds   1           -121     121                Points:         243
 RS_GRID|   Bounds   2           -121     121                Points:         243
 RS_GRID|   Bounds   3           -121     121                Points:         243
 RS_GRID| Real space distribution over                                  4 groups
 RS_GRID| Real space distribution along direction                              1
 RS_GRID| Border size                                                         35
 RS_GRID| Real space distribution over                                  4 groups
 RS_GRID| Real space distribution along direction                              2
 RS_GRID| Border size                                                         35
 RS_GRID| Real space distribution over                                  8 groups
 RS_GRID| Real space distribution along direction                              3
 RS_GRID| Border size                                                         35
 RS_GRID|   Distribution                         Average         Max         Min
 RS_GRID|   Planes                                 130.8         131         130
 RS_GRID|   Distribution                         Average         Max         Min
 RS_GRID|   Planes                                 130.8         131         130
 RS_GRID|   Distribution                         Average         Max         Min
 RS_GRID|   Planes                                 100.4         101         100

 RS_GRID| Information for grid number                                          4
 RS_GRID|   Bounds   1            -72      71                Points:         144
 RS_GRID|   Bounds   2            -72      71                Points:         144
 RS_GRID|   Bounds   3            -72      71                Points:         144
 RS_GRID| Real space fully replicated
 RS_GRID| Group size                                                           1

 RS_GRID| Information for grid number                                          5
 RS_GRID|   Bounds   1            -40      40                Points:          81
 RS_GRID|   Bounds   2            -40      40                Points:          81
 RS_GRID|   Bounds   3            -40      40                Points:          81
 RS_GRID| Real space fully replicated
 RS_GRID| Group size                                                           1

 RS_GRID| Information for grid number                                          6
 RS_GRID|   Bounds   1            -24      23                Points:          48
 RS_GRID|   Bounds   2            -24      23                Points:          48
 RS_GRID|   Bounds   3            -24      23                Points:          48
 RS_GRID| Real space fully replicated
 RS_GRID| Group size                                                           1

  HFX_INFO| Replica ID:                                                        1
  HFX_INFO| FRACTION:                                               0.2500000000
  HFX_INFO| Interaction Potential:                                       COULOMB
  HFX_INFO| EPS_SCHWARZ:                                                 1.0E-10
  HFX_INFO| EPS_SCHWARZ_FORCES                                           1.0E-06
  HFX_INFO| EPS_STORAGE_SCALING:                                         1.0E+00
  HFX_INFO| NBINS:                                                            64
  HFX_INFO| BLOCK_SIZE:                                                        1
  HFX_INFO| Number of periodic shells considered:                           NONE
  HFX_INFO| Number of periodic cells considered:                            NONE


 Number of electrons:                                                         16
 Number of occupied orbitals:                                                  8
 Number of molecular orbitals:                                                 8

 Number of orbital functions:                                                 90
 Number of independent orbital functions:                                     90

 Extrapolation method: initial_guess


 SCF WAVEFUNCTION OPTIMIZATION

  ----------------------------------- OT ---------------------------------------
  Minimizer      : DIIS                : direct inversion
                                         in the iterative subspace
                                         using   7 DIIS vectors
                                         safer DIIS on
  Preconditioner : FULL_ALL            : diagonalization, state selective
  Precond_solver : DEFAULT
  stepsize       :    0.15000000                  energy_gap     :    0.08000000
  eps_taylor     :   0.10000E-15                  max_taylor     :             4
  ----------------------------------- OT ---------------------------------------

  Step     Update method      Time    Convergence         Total energy    Change
  ------------------------------------------------------------------------------

  HFX_MEM_INFO| Est. max. program size before HFX [MiB]:                     931
  HFX_MEM_INFO| Number of cart. primitive ERI's calculated:             76320338
  HFX_MEM_INFO| Number of sph. ERI's calculated:                        15368070
  HFX_MEM_INFO| Number of sph. ERI's stored in-core:                    15368070
  HFX_MEM_INFO| Number of sph. ERI's stored on disk:                           0
  HFX_MEM_INFO| Number of sph. ERI's calculated on the fly:                    0
  HFX_MEM_INFO| Total memory consumption ERI's RAM [MiB]:                     48
  HFX_MEM_INFO| Whereof max-vals [MiB]:                                        2
  HFX_MEM_INFO| Total compression factor ERI's RAM:                         2.46
  HFX_MEM_INFO| Total memory consumption ERI's disk [MiB]:                     0
  HFX_MEM_INFO| Total compression factor ERI's disk:                        0.00
  HFX_MEM_INFO| Size of density/Fock matrix [MiB]:                             0
  HFX_MEM_INFO| Size of buffers [MiB]:                                         0
  HFX_MEM_INFO| Est. max. program size after HFX  [MiB]:                     926

     1 OT DIIS     0.15E+00   92.1     0.00000002      -114.4154150733 -1.14E+02

  *** SCF run converged in     1 steps ***


  Electronic density on regular grids:        -11.6370491242        4.3629508758
  Core density on regular grids:               16.0000000000       -0.0000000000
  Hard and soft densities (Lebedev):          -23.1912661695      -18.8283161855
  Total Rho_soft + Rho1_hard - Rho1_soft      -15.9999991082
  Total charge density (r-space):               0.0000008918
  Total Rho_soft + Rho0_soft (g-space):         0.0000008487

  Overlap energy of the core charge distribution:               0.00000266530266
  Self energy of the core charge distribution:               -104.84381476465852
  Core Hamiltonian energy:                                    -12.86053192778994
  Hartree energy:                                              31.06615545384424
  Exchange-correlation energy:                                 -4.22381178831009
  Hartree-Fock Exchange energy:                                -3.51059330871202

  GAPW| Exc from hard and soft atomic rho1:                    -6.82455842657570
  GAPW| local Eh = 1 center integrals:                        -13.21826297636189

  Total energy:                                              -114.41541507326124

  outer SCF iter =    1 RMS gradient =   0.16E-07 energy =       -114.4154150733
  outer SCF loop converged in   1 iterations or    1 steps


 !-----------------------------------------------------------------------------!
                     Mulliken Population Analysis

 #  Atom  Element  Kind  Atomic population                           Net charge
       1     O        1          8.230498                             -0.230498
       2     C        2          5.833231                              0.166769
       3     H        3          0.968131                              0.031869
       4     H        3          0.968140                              0.031860
 # Total charge                             16.000000                  0.000000

 !-----------------------------------------------------------------------------!

 !-----------------------------------------------------------------------------!
                           Hirshfeld Charges

  #Atom  Element  Kind  Ref Charge     Population                    Net charge
      1       O      1       8.000          8.372                        -0.372
      2       C      2       6.000          6.585                        -0.585
      3       H      3       1.000          0.519                         0.481
      4       H      3       1.000          0.519                         0.481

  Total Charge                                                            0.005
 !-----------------------------------------------------------------------------!

 *******************************************************************************
 **                                                                           **
 **         ######## #######   #######   ######## #######  ########           **
 **            ##    ##     ## ##     ## ##       ##   ##     ##              **
 **            ##    ##     ## ##     ## ######   #######     ##              **
 **            ##    ##     ## ##     ## ##       ##          ##              **
 **            ##    #######   #######   ##       ##          ##              **
 **                                                                           **
 *******************************************************************************
 KERNEL|                                                                    FULL
 FUNCTIONAL| PBE:
 FUNCTIONAL| J.P.Perdew, K.Burke, M.Ernzerhof, Phys. Rev. Letter, vol. 77, n 18,
 FUNCTIONAL|  pp. 3865-3868, (1996)sx=0.750sc=1.000{spin unpolarized}           
 KERNEL|                                                          Exact Exchange
 KERNEL| Spin symmetry of excitations                                    Triplet
 TDDFPT| Number of states calculated                                          10
 TDDFPT| Number of Davidson iterations                                        20
 TDDFPT| Davidson iteration convergence                                0.100E-07
 TDDFPT| Max. number of Krylov space vectors                                  60
 TDDFPT| Molecular Orbitals:        Spin       AOs       Occ      Virt     Total
 TDDFPT|                               1        90         8        82        90

 *******************************************************************************
 **                                                                           **
 **                            ####### ####### #######                        **
 **                        #   ##      ##   ## ##                             **
 **                       ###  ######  ##   ## ##                             **
 **                        #       ##  ##   ## ##                             **
 **                            ######  ####### #######                        **
 **                 Based on the xas module from Augustin Bussy               **
 *******************************************************************************
 
 -------------------------------------------------------------------------------
 -                      TDDFPT TRIPLET ENERGIES                                 -
 -------------------------------------------------------------------------------
 
 -------------------------------------------------------------------------------
 -                            TDDFPT Initial Guess                             -
 -------------------------------------------------------------------------------
          State         Occupied      ->      Virtual          Excitation
          number         orbital              orbital          energy (eV)
 -------------------------------------------------------------------------------
             1                8                    9              6.48648
             2                8                   10              9.54566
             3                7                    9             10.02116
             4                8                   11             11.22837
             5                6                    9             11.46742
             6                8                   12             12.04458
             7                5                    9             12.59815
             8                7                   10             13.08034
             9                6                   10             14.52659
            10                7                   11             14.76305

      Number of active states:                                        656
 -------------------------------------------------------------------------------
 
 -------------------------------------------------------------------------------
 -                      TDDFPT WAVEFUNCTION OPTIMIZATION                       -
 -------------------------------------------------------------------------------

          Step            Time         Convergence           Conv. states
 -------------------------------------------------------------------------------

    State    Exc. energy (eV)      Convergence (eV)
        1       3.3278035            -3.1587E+00
        2       5.8817149            -3.6639E+00
        3       7.6801171            -2.3410E+00
        4       8.0140477            -3.2143E+00
        5       9.2863966            -2.1810E+00
        6       9.4177902            -2.6268E+00
        7       9.8064633            -2.7917E+00
        8      11.3615868            -1.7187E+00
        9      12.8417064            -1.6849E+00
       10      13.0061635            -1.7569E+00
 
             1           512.1          1.3465E-01                      0

    State    Exc. energy (eV)      Convergence (eV)
        1       3.2272571            -1.0055E-01
        2       5.6609533            -2.2076E-01
        3       7.5387317            -1.4139E-01
        4       7.8581280            -1.5592E-01
        5       9.1351447            -1.5125E-01
        6       9.2779420            -1.3985E-01
        7       9.6962244            -1.1024E-01
        8      11.2776388            -8.3948E-02
        9      12.7017243            -1.3998E-01
       10      12.9207610            -8.5402E-02
 
             2           492.8          8.1128E-03                      0

    State    Exc. energy (eV)      Convergence (eV)
        1       3.2271560            -1.0111E-04
        2       5.6598918            -1.0615E-03
        3       7.5361333            -2.5984E-03
        4       7.8573777            -7.5030E-04
        5       9.1313855            -3.7592E-03
        6       9.2775172            -4.2486E-04
        7       9.6955020            -7.2236E-04
        8      11.2571783            -2.0460E-02
        9      12.6927601            -8.9642E-03
       10      12.9138370            -6.9240E-03
 
             3           481.8          7.5191E-04                      0

    State    Exc. energy (eV)      Convergence (eV)
        1       3.2271558            -2.0159E-07
        2       5.6598806            -1.1201E-05
        3       7.5361165            -1.6813E-05
        4       7.8573652            -1.2496E-05
        5       9.1313610            -2.4469E-05
        6       9.2775141            -3.0233E-06
        7       9.6954905            -1.1552E-05
        8      11.2561505            -1.0279E-03
        9      12.6923926            -3.6754E-04
       10      12.8308191            -8.3018E-02
 
             4           475.4          3.0509E-03                      1

    State    Exc. energy (eV)      Convergence (eV)
        1       3.2271558            -3.1318E-10
        2       5.6598805            -4.0978E-08
        3       7.5361163            -1.7041E-07
        4       7.8573651            -9.9563E-08
        5       9.1313608            -1.5524E-07
        6       9.2775141            -9.3251E-09
        7       9.6954903            -1.7365E-07
        8      11.2561430            -7.4645E-06
        9      12.6923838            -8.8028E-06
       10      12.8098059            -2.1013E-02
 
             5           486.4          7.7222E-04                      7

    State    Exc. energy (eV)      Convergence (eV)
        1       3.2271558            -3.7310E-13
        2       5.6598805            -2.3933E-10
        3       7.5361163            -1.1026E-09
        4       7.8573651            -5.0646E-10
        5       9.1313608            -1.9921E-09
        6       9.2775141            -2.2956E-11
        7       9.6954903            -1.5706E-09
        8      11.2561429            -7.8167E-08
        9      12.6923835            -2.9810E-07
       10      12.8095233            -2.8263E-04
 
             6           415.1          1.0386E-05                      8
 ------------------------- Restart Davidson iterations -------------------------

    State    Exc. energy (eV)      Convergence (eV)
        1       3.2271558             5.2869E-15
        2       5.6598805             1.0574E-14
        3       7.5361163            -7.7037E-14
        4       7.8573651             1.5105E-15
        5       9.1313608            -7.5527E-15
        6       9.2775141             4.5316E-15
        7       9.6954903             4.0784E-14
        8      11.2561429            -6.7974E-14
        9      12.6923835            -4.5316E-14
       10      12.8095233            -2.8700E-14
 
             7           414.7          2.8311E-15                     10
 
 -------------------------------------------------------------------------------
 -  TDDFPT run converged in 7 iteration(s) 
 -------------------------------------------------------------------------------

 R-TDDFPT states of multiplicity 3
 Transition dipoles calculated using velocity formulation

         State    Excitation        Transition dipole (a.u.)        Oscillator
         number   energy (eV)       x           y           z     strength (a.u.)
         ------------------------------------------------------------------------
 TDDFPT|      1       3.22716   0.0000E+00  0.0000E+00  0.0000E+00   0.00000E+00
 TDDFPT|      2       5.65988   0.0000E+00  0.0000E+00  0.0000E+00   0.00000E+00
 TDDFPT|      3       7.53612   0.0000E+00  0.0000E+00  0.0000E+00   0.00000E+00
 TDDFPT|      4       7.85737   0.0000E+00  0.0000E+00  0.0000E+00   0.00000E+00
 TDDFPT|      5       9.13136   0.0000E+00  0.0000E+00  0.0000E+00   0.00000E+00
 TDDFPT|      6       9.27751   0.0000E+00  0.0000E+00  0.0000E+00   0.00000E+00
 TDDFPT|      7       9.69549   0.0000E+00  0.0000E+00  0.0000E+00   0.00000E+00
 TDDFPT|      8      11.25614   0.0000E+00  0.0000E+00  0.0000E+00   0.00000E+00
 TDDFPT|      9      12.69238   0.0000E+00  0.0000E+00  0.0000E+00   0.00000E+00
 TDDFPT|     10      12.80952   0.0000E+00  0.0000E+00  0.0000E+00   0.00000E+00

 TDDFPT : CheckSum  =  0.108788E+01
 
 -------------------------------------------------------------------------------
 -                            Excitation analysis                              -
 -------------------------------------------------------------------------------
        State             Occupied              Virtual             Excitation
        number             orbital              orbital             amplitude
 -------------------------------------------------------------------------------
             1   3.22716 eV
                                 8                    9              -0.996889
             2   5.65988 eV
                                 7                    9              -0.993042
                                 7                   13              -0.075722
                                 7                   20               0.069049
             3   7.53612 eV
                                 8                   10              -0.989544
                                 5                   10               0.094850
                                 8                   14              -0.065102
             4   7.85737 eV
                                 6                    9               0.995318
                                 6                   13               0.055856
                                 6                   20              -0.053481
             5   9.13136 eV
                                 8                   11               0.987121
                                 8                   17               0.089778
                                 5                   11              -0.080993
                                 4                   10               0.060306
                                 6                   10              -0.060096
             6   9.27751 eV
                                 5                    9              -0.992828
                                 5                   13              -0.067470
                                 7                   11               0.052765
             7   9.69549 eV
                                 8                   12              -0.994833
                                 8                   18              -0.058542
             8  11.25614 eV
                                 7                   10              -0.980711
                                 4                    9              -0.172618
                                 7                   14              -0.056099
             9  12.69238 eV
                                 6                   10               0.978328
                                 4                   10              -0.121586
                                 5                   11               0.099296
                                 8                   11               0.081875
            10  12.80952 eV
                                 4                    9               0.961842
                                 7                   10              -0.180564
                                 7                   12              -0.146192
                                 4                   13               0.075200
                                 8                   19              -0.061277
                                 7                   14               0.056997
                                 5                   19               0.052771
 -------------------------------------------------------------------------------
 
 -------------------------------------------------------------------------------
 -                            Natural Orbital analysis                         -
 -------------------------------------------------------------------------------
   STATE NR.      1             3.22716 eV
     Particle-Hole state: 1   Spin:1     Eigenvalue: 0.99867   Sum Eigv: 0.99867
   STATE NR.      2             5.65988 eV
     Particle-Hole state: 1   Spin:1     Eigenvalue: 0.99722   Sum Eigv: 0.99722
   STATE NR.      3             7.53612 eV
     Particle-Hole state: 1   Spin:1     Eigenvalue: 0.99512   Sum Eigv: 0.99512
   STATE NR.      4             7.85737 eV
     Particle-Hole state: 1   Spin:1     Eigenvalue: 0.99761   Sum Eigv: 0.99761
   STATE NR.      5             9.13136 eV
     Particle-Hole state: 1   Spin:1     Eigenvalue: 0.99107   Sum Eigv: 0.99107
   STATE NR.      6             9.27751 eV
     Particle-Hole state: 1   Spin:1     Eigenvalue: 0.99246   Sum Eigv: 0.99246
   STATE NR.      7             9.69549 eV
     Particle-Hole state: 1   Spin:1     Eigenvalue: 0.99649   Sum Eigv: 0.99649
   STATE NR.      8            11.25614 eV
     Particle-Hole state: 1   Spin:1     Eigenvalue: 0.96817   Sum Eigv: 0.96817
     Particle-Hole state: 2   Spin:1     Eigenvalue: 0.03153   Sum Eigv: 0.99969
   STATE NR.      9            12.69238 eV
     Particle-Hole state: 1   Spin:1     Eigenvalue: 0.97763   Sum Eigv: 0.97763
   STATE NR.     10            12.80952 eV
     Particle-Hole state: 1   Spin:1     Eigenvalue: 0.93233   Sum Eigv: 0.93233
     Particle-Hole state: 2   Spin:1     Eigenvalue: 0.05894   Sum Eigv: 0.99128
 -------------------------------------------------------------------------------
 
                       triplet excitations finished                             
                                                                                
 -------------------------------------------------------------------------------
 -                      TDDFPT SINGLET ENERGIES                                -
 -------------------------------------------------------------------------------
 
 -------------------------------------------------------------------------------
 -                            TDDFPT Initial Guess                             -
 -------------------------------------------------------------------------------
          State         Occupied      ->      Virtual          Excitation
          number         orbital              orbital          energy (eV)
 -------------------------------------------------------------------------------
             1                8                    9              6.48648
             2                8                   10              9.54566
             3                7                    9             10.02116
             4                8                   11             11.22837
             5                6                    9             11.46742
             6                8                   12             12.04458
             7                5                    9             12.59815
             8                7                   10             13.08034
             9                6                   10             14.52659
            10                7                   11             14.76305

      Number of active states:                                        656
 -------------------------------------------------------------------------------
 
 -------------------------------------------------------------------------------
 -                      TDDFPT WAVEFUNCTION OPTIMIZATION                       -
 -------------------------------------------------------------------------------

          Step            Time         Convergence           Conv. states
 -------------------------------------------------------------------------------

    State    Exc. energy (eV)      Convergence (eV)
        1       4.0227360            -2.4637E+00
        2       8.1732453            -1.3724E+00
        3       9.2770238            -7.4414E-01
        4       9.9980660            -1.2303E+00
        5      10.1535779            -1.3138E+00
        6      10.1992854            -1.8453E+00
        7      11.5719942            -1.0262E+00
        8      13.0692755            -1.1061E-02
        9      13.1422895            -1.3843E+00
       10      14.0500380            -7.1301E-01
 
             1           453.4          9.0541E-02                      0

    State    Exc. energy (eV)      Convergence (eV)
        1       3.9759332            -4.6803E-02
        2       8.1312116            -4.2034E-02
        3       9.1184183            -1.5861E-01
        4       9.6413071            -3.5676E-01
        5      10.1142294            -3.9348E-02
        6      10.1597394            -3.9546E-02
        7      10.7913525            -7.8064E-01
        8      11.5217911            -1.5475E+00
        9      13.0986341            -4.3655E-02
       10      13.2314280            -8.1861E-01
 
             2           477.3          5.6869E-02                      0

    State    Exc. energy (eV)      Convergence (eV)
        1       3.9757364            -1.9686E-04
        2       8.1304959            -7.1573E-04
        3       9.1147894            -3.6289E-03
        4       9.6292404            -1.2067E-02
        5      10.1139526            -2.7683E-04
        6      10.1584963            -1.2431E-03
        7      10.7635225            -2.7830E-02
        8      11.5177461            -4.0449E-03
        9      13.0985798            -5.4373E-05
       10      13.2271100            -4.3180E-03
 
             3           468.8          1.0227E-03                      0

    State    Exc. energy (eV)      Convergence (eV)
[...]
 flops    62 x     8 x    14               111104       0.0%    100.0%      0.0%
 flops    14 x    18 x    14               112896       0.0%    100.0%      0.0%
 flops    62 x     8 x    31               246016       0.0%    100.0%      0.0%
 flops    14 x    18 x    31               249984       0.0%    100.0%      0.0%
 flops    31 x    18 x    14               249984       0.0%    100.0%      0.0%
 flops    14 x    32 x    14               401408       0.0%    100.0%      0.0%
 flops    31 x    18 x    31               553536       0.0%    100.0%      0.0%
 flops    31 x    32 x    14               888832       0.0%    100.0%      0.0%
 flops    14 x    32 x    31               888832       0.0%    100.0%      0.0%
 flops    31 x    32 x    31              1968128       0.0%    100.0%      0.0%
 flops    14 x    14 x     8              2653056       0.0%    100.0%      0.0%
 flops    14 x    31 x     8              3916416       0.0%    100.0%      0.0%
 flops    31 x    14 x     8              3916416       0.0%    100.0%      0.0%
 flops     8 x     8 x    14              5035520       0.0%    100.0%      0.0%
 flops     8 x     8 x    31             11150080       0.0%    100.0%      0.0%
 flops    14 x     8 x    14             12475008       0.0%    100.0%      0.0%
 flops    31 x    31 x     8             13008096       0.0%    100.0%      0.0%
 flops    31 x     8 x    14             26637184       0.0%    100.0%      0.0%
 flops    14 x     8 x    31             26748288       0.0%    100.0%      0.0%
 flops    31 x     8 x    31             60919712       0.0%    100.0%      0.0%
 flops inhomo. stacks                           0       0.0%      0.0%      0.0%
 flops total                       172.200640E+06       0.0%    100.0%      0.0%
 flops max/rank                     84.797248E+06       0.0%    100.0%      0.0%
 matmuls inhomo. stacks                         0       0.0%      0.0%      0.0%
 matmuls total                              24295       0.0%    100.0%      0.0%
 number of processed stacks                 19009       0.0%    100.0%      0.0%
 average stack size                                     0.0       1.3       0.0
 marketing flops                   191.097680E+06
 -------------------------------------------------------------------------------
 # multiplications                           1213
 max memory usage/rank               1.514426E+09
 # max total images/rank                        2
 # max 3D layers                                1
 # MPI messages exchanged                 4502656
 MPI messages size (bytes):
  total size                       970.121152E+06
  min size                           0.000000E+00
  max size                          15.376000E+03
  average size                     215.455307E+00
 MPI breakdown and total messages size (bytes):
             size <=      128             4279952                        0
       128 < size <=     8192              195854                557275568
      8192 < size <=    32768               26850                412845600
     32768 < size <=   131072                   0                        0
    131072 < size <=  4194304                   0                        0
   4194304 < size <= 16777216                   0                        0
  16777216 < size                               0                        0
 -------------------------------------------------------------------------------

 *** WARNING in dbcsr_mm.F:291 :: Using a non-square number of MPI ranks ***
 *** might lead to poor performance. Used ranks: 128 Suggested: 121 256  ***

 -------------------------------------------------------------------------------
 -                                                                             -
 -                      DBCSR MESSAGE PASSING PERFORMANCE                      -
 -                                                                             -
 -------------------------------------------------------------------------------
 ROUTINE             CALLS      AVE VOLUME [Bytes]
 MP_Bcast               24                     12.
 MP_Allreduce         4618                      8.
 MP_Alltoall         26750                  38213.
 MP_ISend            75696                    783.
 MP_IRecv            75150                    617.
 -------------------------------------------------------------------------------

 -------------------------------------------------------------------------------
 -                                                                             -
 -                                DBM STATISTICS                               -
 -                                                                             -
 -------------------------------------------------------------------------------
    M  x    N  x    K                                          COUNT     PERCENT
 -------------------------------------------------------------------------------

 -------------------------------------------------------------------------------
 -                                                                             -
 -                                GRID STATISTICS                              -
 -                                                                             -
 -------------------------------------------------------------------------------
 LP    KERNEL             BACKEND                              COUNT     PERCENT
 2     collocate general  CPU                                  37376      13.24%
 2     integrate general  CPU                                  36352      12.88%
 1     collocate ortho    CPU                                  29664      10.51%
 1     integrate ortho    CPU                                  29046      10.29%
 2     collocate ortho    CPU                                  27216       9.64%
 2     integrate ortho    CPU                                  26649       9.44%
 0     collocate ortho    CPU                                  20304       7.19%
 0     integrate ortho    CPU                                  19881       7.04%
 3     collocate ortho    CPU                                  17424       6.17%
 3     integrate ortho    CPU                                  17061       6.05%
 4     collocate ortho    CPU                                   7488       2.65%
 4     integrate ortho    CPU                                   7332       2.60%
 5     collocate ortho    CPU                                   2304       0.82%
 5     integrate ortho    CPU                                   2256       0.80%
 0     collocate general  CPU                                    512       0.18%
 0     integrate general  CPU                                    512       0.18%
 6     collocate ortho    CPU                                    432       0.15%
 6     integrate ortho    CPU                                    423       0.15%
 -------------------------------------------------------------------------------

 MEMORY| Estimated peak process memory [MiB]                                1446

 -------------------------------------------------------------------------------
 ----                             MULTIGRID INFO                            ----
 -------------------------------------------------------------------------------
 count for grid        1:         925011          cutoff [a.u.]          600.00
 count for grid        2:         224927          cutoff [a.u.]          200.00
 count for grid        3:         191657          cutoff [a.u.]           66.67
 count for grid        4:          41021          cutoff [a.u.]           22.22
 count for grid        5:           2560          cutoff [a.u.]            7.41
 total gridlevel count  :        1385176

 -------------------------------------------------------------------------------
 -                                                                             -
 -                         MESSAGE PASSING PERFORMANCE                         -
 -                                                                             -
 -------------------------------------------------------------------------------

 ROUTINE             CALLS      AVE VOLUME [Bytes]
 MP_Group                6
 MP_Bcast             1348                 400542.
 MP_Allreduce         7335                   7761.
 MP_Sync              1471
 MP_Alltoall          3796               18519376.
 MP_SendRecv         54864                 127152.
 MP_ISendRecv       125349                  63251.
 MP_Wait            158908
 MP_comm_split          58
 MP_ISend            27778                 663727.
 MP_IRecv            30410                 606222.
 -------------------------------------------------------------------------------


 -------------------------------------------------------------------------------
 -                                                                             -
 -                           R E F E R E N C E S                               -
 -                                                                             -
 -------------------------------------------------------------------------------
 
 CP2K version 2024.1 (Development Version), the CP2K developers group (2024).
 CP2K is freely available from https://www.cp2k.org/ .

 Kuehne,Thomas D.; Iannuzzi,Marcella; Del Ben,Mauro;
 Rybkin,Vladimir V.; Seewald,Patrick; Stein,Frederick; Laino,Teodoro;
 Khaliullin,Rustam Z.; Schuett,Ole; Schiffmann,Florian; Golze,Dorothea;
 Wilhelm,Jan; Chulkov,Sergey; Bani-Hashemian,Mohammad Hossein;
 Weber,Valery; Borstnik,Urban; Taillefumier,Mathieu;
 Jakobovits,Alice Shoshana; Lazzaro,Alfio; Pabst,Hans; Mueller,Tiziano;
 Schade,Robert; Guidon,Manuel; Andermatt,Samuel; Holmberg,Nico;
 Schenter,Gregory K.; Hehn,Anna; Bussy,Augustin; Belleflamme,Fabian;
 Tabacchi,Gloria; Gloess,Andreas; Lass,Michael; Bethune,Iain;
 Mundy,Christopher J.; Plessl,Christian; Watkins,Matt;
 VandeVondele,Joost; Krack,Matthias; Hutter,Juerg. 
 The Journal of Chemical Physics, 152 (19), (2020). 
 CP2K: An electronic structure and molecular dynamics software package -
 Quickstep: Efficient and accurate electronic structure calculations.
 https://doi.org/10.1063/5.0007045

 Schuett, Ole; Messmer, Peter; Hutter, Juerg; VandeVondele, Joost. 
 Electronic Structure Calculations on Graphics Processing Units, John
 Wiley & Sons, Ltd, 173-190 (2016). 
 GPU-Accelerated Sparse Matrix-Matrix Multiplication for
 Linear Scaling Density Functional Theory.
 https://doi.org/10.1002/9781118670712.ch8

 Heinecke, A; Henry, G; Hutchinson, M; Pabst, H. 
 Proceedings of Intl. Supercomputing Conference, 981-991 (2016). 
 LIBXSMM: Accelerating Small Matrix Multiplications
 by Runtime Code Generation.
 https://doi.org/10.1109/SC.2016.83

 Borstnik, U; VandeVondele, J; Weber, V; Hutter, J. 
 PARALLEL COMPUTING, 40 (5-6), 47-58 (2014). 
 Sparse matrix multiplication: The distributed block-compressed sparse
 row library.
 https://doi.org/10.1016/j.parco.2014.03.012

 Hutter, J; Iannuzzi, M; Schiffmann, F; VandeVondele, J. 
 WIREs Comput Mol Sci., 4 (1), 15-25 (2014). 
 CP2K: atomistic simulations of condensed matter systems.
 https://doi.org/10.1002/wcms.1159

 Guidon, M; Hutter, J; VandeVondele, J. 
 JOURNAL OF CHEMICAL THEORY AND COMPUTATION, 5 (11), 3010-3021 (2009). 
 Robust Periodic Hartree-Fock Exchange for Large-Scale Simulations Using
 Gaussian Basis Sets.
 https://doi.org/10.1021/ct900494g

 Guidon, M; Schiffmann, F; Hutter, J; VandeVondele, J. 
 JOURNAL OF CHEMICAL PHYSICS, 128 (21), 214104 (2008). 
 Ab initio molecular dynamics using hybrid density functionals.
 https://doi.org/10.1063/1.2931945

 Frigo, M; Johnson, SG. 
 PROCEEDINGS OF THE IEEE, 93 (2), 216-231 (2005). 
 The design and implementation of FFTW3.
 https://doi.org/10.1109/JPROC.2004.840301

 Iannuzzi, M; Chassaing, T; Wallman, T; Hutter, J. 
 CHIMIA, 59 (7-8), 499-503 (2005). 
 Ground and excited state density functional calculations with the
 Gaussian and augmented-plane-wave method.
 https://doi.org/10.2533/000942905777676164

 VandeVondele, J; Hutter, J. 
 JOURNAL OF CHEMICAL PHYSICS, 118 (10), 4365-4369 (2003). 
 An efficient orbital transformation method for electronic structure
 calculations.
 https://doi.org/10.1063/1.1543154

 Martin,Richard L.. 
 The Journal of Chemical Physics, 118 (11), 4775-4777 (2003). 
 Natural transition orbitals.
 https://doi.org/10.1063/1.1558471

 Lippert, G; Hutter, J; Parrinello, M. 
 THEORETICAL CHEMISTRY ACCOUNTS, 103 (2), 124-140 (1999). 
 The Gaussian and augmented-plane-wave density functional method for ab
 initio molecular dynamics simulations.
 https://doi.org/10.1007/s002140050523

 Krack, M; Parrinello, M. 
 PHYSICAL CHEMISTRY CHEMICAL PHYSICS, 2 (10), 2105-2112 (2000). 
 All-electron ab-initio molecular dynamics.
 https://doi.org/10.1039/b001167n

 Martyna, GJ; Tuckerman, ME. 
 JOURNAL OF CHEMICAL PHYSICS, 110 (6), 2810-2821 (1999). 
 A reciprocal space based method for treating long range interactions in
 ab initio and force-field-based calculations in clusters.
 https://doi.org/10.1063/1.477923

 Perdew, JP; Burke, K; Ernzerhof, M. 
 PHYSICAL REVIEW LETTERS, 77 (18), 3865-3868 (1996). 
 Generalized gradient approximation made simple.
 https://doi.org/10.1103/PhysRevLett.77.3865


 -------------------------------------------------------------------------------
 -                                                                             -
 -                                T I M I N G                                  -
 -                                                                             -
 -------------------------------------------------------------------------------
 SUBROUTINE                       CALLS  ASD         SELF TIME        TOTAL TIME
                                MAXIMUM       AVERAGE  MAXIMUM  AVERAGE  MAXIMUM
 CP2K                                 1  1.0    4.258    4.386 7544.331 7544.401
 qs_energies                          1  2.0    0.020    0.071 7480.414 7480.486
 qs_energies_properties               1  3.0    0.000    0.012 7353.009 7353.076
 tddfpt                               1  4.0    0.015    0.069 7353.009 7353.076
 tddfpt_soc_energies                  1  5.0    0.000    0.011 7322.093 7322.170
 tddfpt_energies                      2  6.0    0.001    0.013 7244.311 7244.401
 tddfpt_davidson_solver               4  7.0    0.031    0.106 6577.715 6577.777
 tddfpt_compute_Aop_evects           14  8.0    0.008    0.057 5822.120 5822.371
 fhxc_kernel                         14  9.0    0.015    0.059 3668.213 3668.519
 mp_waitall_1                    264354 14.5 1985.567 2037.131 1985.567 2037.131
 tddfpt_apply_hfx                    14  9.0    0.007    0.058 1859.339 1859.409
 cp_dbcsr_sm_fm_multiply            881  9.5    0.016    0.040 1694.982 1707.929
 qs_rho_update_rho_low              144  9.9    0.015    0.069 1382.134 1384.570
 dbcsr_complete_redistribute       2812 11.5    0.108    0.168 1339.770 1365.053
 calculate_rho_elec                 144 10.9    0.852    1.443 1272.836 1274.419
 density_rs2pw                      144 11.9    0.015    0.049 1242.621 1246.210
 integrate_v_rspace                 141 10.0    0.007    0.030 1201.701 1204.875
 integrate_four_center              281 11.0    0.092    0.246 1189.943 1193.209
 tddft_hfx_matrix                   280 10.0    0.013    0.039 1175.521 1178.779
 potential_pw2rs                    141 11.0    0.057    0.105 1157.704 1167.506
 transfer_rs2pw                     794 12.8    0.013    0.057 1046.048 1056.234
 transfer_pw2rs                     777 12.0    0.011    0.055 1043.560 1052.374
 copy_dbcsr_to_fm                   928 10.4    0.013    0.044  951.532  964.669
 mp_sendrecv_dv                   54864 14.9  919.113  937.056  919.113  937.056
 pw_transfer                       3138 12.5    0.448    0.663  732.302  748.762
 fft_wrap_pw1pw2                   2923 13.6    0.043    0.088  730.787  747.084
 fft3d_ps                          2923 15.6   88.711  100.779  669.441  686.546
 copy_fm_to_dbcsr                  1880 10.6    0.009    0.046  635.840  661.611
 mp_alltoall_d11v                 11505 12.8  588.850  627.024  588.850  627.024
 integrate_four_center_getP         281 12.0    0.058    0.120  590.684  591.862
 dbcsr_multiply_generic            1213 11.3    0.057    0.120  565.990  587.299
 tddfpt_print_nto_analysis            2  7.0    0.010    0.046  576.071  576.416
 integrate_four_center_dist_KS      281 12.0    0.059    0.134  561.193  561.514
 fft_wrap_pw1pw2_600               1782 14.6    8.451    9.765  536.732  553.008
 tddfpt_orthonormalize_psi1_psi      16  7.9    0.009    0.049  504.103  506.746
 cp_fm_syevd                         58  8.6    0.005    0.033  502.857  503.959
 mp_alltoall_z22v                  2923 17.6  472.502  500.044  472.502  500.044
 mp_alltoall_i11v                  9364 12.5  481.678  482.559  481.678  482.559
 tddfpt_apply_xc_analytic           140 10.0    2.249    3.186  445.937  449.452
 cp_fm_redistribute_end              58  9.6  230.972  426.385  236.796  428.674
 transfer_pw2rs_70                  141 13.0    6.639    8.817  400.832  428.258
 transfer_rs2pw_70                  144 13.9    4.549    6.569  393.464  419.286
 cp_fm_geeig                         20  8.0    0.007    0.039  382.819  383.069
 cp_fm_syevd_base                    58  9.6  188.070  381.997  188.070  381.997
 cp_dbcsr_sm_fm_multiply_core       881 10.5    0.002    0.015  354.972  374.771
 transfer_pw2rs_30                  141 13.0    0.441    1.039  319.605  346.955
 xc_pw_derive                      1065 11.8    0.031    0.069  336.016  343.283
 transfer_rs2pw_30                  144 13.9    0.506    0.996  312.888  339.928
 tddfpt_apply_energy_diff            14  9.0    0.001    0.001  294.559  294.670
 mp_cart_sub                       1864 12.4  292.598  293.720  292.598  293.720
 cp_dbcsr_plus_fm_fm_t_native       141 10.0    0.008    0.046  280.635  282.419
 mp_sum_l                          4673 11.3  263.625  275.254  263.625  275.254
 dbcsr_desymmetrize_deep            928 11.4    0.021    0.052  248.973  262.182
 mp_sync                           1471 12.7  234.871  261.102  234.871  261.102
 yz_to_x                           1073 17.1    9.850   11.084  237.029  259.066
 xc_calc_2nd_deriv_analytical       700 11.1   57.776   73.550  244.891  245.935
 mp_sum_dv                         4178 10.0  240.364  243.973  240.364  243.973
 x_to_yz                           1280 16.1   16.666   25.979  232.507  238.414
 transfer_rs2pw_10                  144 13.9    0.139    0.250  217.954  229.443
 cp_fm_trace_a1b1t1_aa             3880  9.0    0.012    0.062  222.208  225.234
 transfer_pw2rs_10                  141 13.0    0.110    0.235  212.205  218.438
 mp_alltoall_i22                   3740 12.5  188.373  211.337  188.373  211.337
 mp_waitany                       27778 14.3  148.819  197.001  148.819  197.001
 xc_pw_divergence                   141 12.0    0.013    0.046  178.993  186.880
 tddfpt_compute_residual_vects       10  8.0    0.001    0.014  185.337  185.679
 multiply_cannon                   1213 12.3    0.103    0.201  168.244  184.800
 mp_sum_dm                         1553 11.8  149.946  154.230  149.946  154.230
 -------------------------------------------------------------------------------

 The number of warnings for this run is : 1
 
 -------------------------------------------------------------------------------
  **** **** ******  **  PROGRAM ENDED AT                 2024-02-07 18:00:54.383
 ***** ** ***  *** **   PROGRAM RAN ON                               nesh-clk558
 **    ****   ******    PROGRAM RAN BY                                  suphc355
 ***** **    ** ** **   PROGRAM PROCESS ID                               2105342
  **** **  *******  **  PROGRAM STOPPED IN /gxfs_work/cau/suphc355/homologes/CH2
                                           X/AE/O
