 operating system is UNIX !
 hostname is         elgar

 dscf (elgar) : TURBOMOLE V7.0( 19819 ) 16 Jun 2015 at 11:29:46
 Copyright (C) 2015 TURBOMOLE GmbH, Karlsruhe


    2024-02-12 15:23:04.828 



                             d s c f - program

                   idea & directorship : reinhart ahlrichs
                   program development : marco haeser
                                         michael baer
                           dft version : oliver treutler


                          quantum chemistry group
                          universitaet  karlsruhe
                                  germany




                          References             
                                                 
          TURBOMOLE:                             
              R. Ahlrichs, M. Baer, M. Haeser, H. Horn, and
              C. Koelmel
              Electronic structure calculations on workstation
              computers: the program system TURBOMOLE
              Chem. Phys. Lett. 162: 165 (1989)
          Density Functional:                              
              O. Treutler and R. Ahlrichs                      
              Efficient Molecular Numerical Integration Schemes
              J. Chem. Phys. 102: 346 (1995)                   
          Parallel Version:                                
              Performance of parallel TURBOMOLE for Density    
              Functional Calculations                          
              M. v. Arnim and R. Ahlrichs                      
              J. Comp. Chem. 19: 1746 (1998)                   
                                         




              +--------------------------------------------------+
              | Atomic coordinate, charge and isotop information |
              +--------------------------------------------------+

                    atomic coordinates            atom    charge  isotop
         -1.34851448    0.00000000   -0.36723389    c      6.000     0
          1.34851448    0.00000000   -0.36723389    c      6.000     0
         -2.65971822    0.00000000    1.96258750    c      6.000     0
         -1.33705869    0.00000000    4.19230117    c      6.000     0
          1.33705869    0.00000000    4.19230117    c      6.000     0
          2.65971822    0.00000000    1.96258750    c      6.000     0
          2.67165471    0.00000000   -2.57471220    n      7.000     0
         -2.67165471    0.00000000   -2.57471220    n      7.000     0
         -1.33982622    0.00000000   -4.66308312    c      6.000     0
          1.33982622    0.00000000   -4.66308312    c      6.000     0
         -2.36641046    0.00000000   -6.44056555    h      1.000     0
          2.36641046    0.00000000   -6.44056555    h      1.000     0
         -4.70524645    0.00000000    1.91415746    h      1.000     0
         -2.34078894    0.00000000    5.97654862    h      1.000     0
          2.34078894    0.00000000    5.97654862    h      1.000     0
          4.70524645    0.00000000    1.91415746    h      1.000     0
 
       center of nuclear mass  :    0.00000000    0.00000000   -0.32414992
       center of nuclear charge:    0.00000000    0.00000000   -0.28898279

              +--------------------------------------------------+
              |               basis set information              |
              +--------------------------------------------------+

              we will work with the 1s 3p 5d 7f 9g ... basis set
              ...i.e. with spherical basis functions...

   type   atoms  prim   cont   basis
   ---------------------------------------------------------------------------
    c        8     46     31   def2-TZVP   [5s3p2d1f|11s6p2d1f]
    n        2     46     31   def2-TZVP   [5s3p2d1f|11s6p2d1f]
    h        6      8      6   def2-TZVP   [3s1p|5s1p]
   ---------------------------------------------------------------------------
   total:   16    508    346
   ---------------------------------------------------------------------------

   total number of primitive shells          :   46
   total number of contracted shells         :  134
   total number of cartesian basis functions :  396
   total number of SCF-basis functions       :  346


 integral neglect threshold       :  0.84E-11
 integral storage threshold THIZE :  0.10E-04
 integral storage threshold THIME :         5


 DENSITY CONVERGENCE CHECK SWITCHED ON !
 SCF CONVERGENCE IF RMS(delta[D]) <     0.1000000000E-06


 symmetry group of the molecule :   c2v

 the group has the following generators :
   c2(z)
   mirror plane sigma(xz)

    4 symmetry operations found

 there are 4 real representations :   a1   a2   b1   b2  

 maximum number of shells which are related by symmetry :  2


    mo occupation :
   irrep   mo's   occupied
    a1     120       16
    a2      53        2
    b1     120       13
    b2      53        3
 
 number of basis functions   :          346
 number of occupied orbitals :           34
 

          ------------------------
          nuclear repulsion energy  :   467.118040041    
          ------------------------

 
          -----------------
          -S,T+V- integrals
          -----------------

 1e-integrals will be neglected if expon. factor < 0.843930E-12
 
   Difference densities algorithm switched on.
   The maximal number of linear combinations of
   difference densities is          20 .

 automatic virtual orbital shift switched on 
      shift if e(lumo)-e(homo) < 0.10000000    


 DIIS switched on: error vector is FDS-SDF
 Max. Iterations for DIIS is     :   5
 DIIS matrix (see manual) 
    Scaling factor of diagonals  :  1.200
    threshold for scaling factor :  0.000

 scf convergence criterion : increment of total energy < .1000000D-06
                  and increment of one-electron energy < .1000000D-03


 <geterg> : there is no data group $energy 

  MOs are in ASCII format !


 reading orbital data $scfmo  from file mos . 

 orbital characterization : expanded
 
 mo provided and orthogonalized by Cholesky decomposition

 DSCF restart information will be dumped onto file mos

 
                                              current damping :  0.600
 ITERATION  ENERGY          1e-ENERGY        2e-ENERGY     RMS[dD(SAO)]   TOL
   1  -413.84418378681    -1474.6562376     593.69401382    0.000D+00 0.842D-11
          max. resid. norm for Fia-block=  3.245D-01 for orbital      1b1        
          max. resid. fock norm         =  9.995D+00 for orbital     64b1        
          Delta Eig. =   547.5925407848 eV 
 
                                              current damping :  0.550
 ITERATION  ENERGY          1e-ENERGY        2e-ENERGY     RMS[dD(SAO)]   TOL
   2  -415.11803294666    -1483.4561377     601.22006472    0.413D-01 0.742D-11
          Norm of current diis error:  3.0823    
          max. resid. norm for Fia-block=  1.565D-01 for orbital      1b1        
          max. resid. fock norm         =  1.778D-01 for orbital     20b1        
          Delta Eig. =   207.4337315333 eV 
 
                                              current damping :  0.450
 ITERATION  ENERGY          1e-ENERGY        2e-ENERGY     RMS[dD(SAO)]   TOL
   3  -415.38691431359    -1486.3491206     603.84416620    0.202D-01 0.432D-11
          Norm of current diis error:  1.3909    
          max. resid. norm for Fia-block=  6.912D-02 for orbital      6b1        
          max. resid. fock norm         =  7.311D-02 for orbital      6a1        
          Delta Eig. =    79.9598718145 eV 
 
                                              current damping :  0.350
 ITERATION  ENERGY          1e-ENERGY        2e-ENERGY     RMS[dD(SAO)]   TOL
   4  -415.46255674387    -1487.5598655     604.97926874    0.870D-02 0.364D-11
          Norm of current diis error: 0.52679    
          max. resid. norm for Fia-block=  2.830D-02 for orbital      6b1        
          max. resid. fock norm         =  2.989D-02 for orbital      6a1        
          Delta Eig. =    26.2527833163 eV 
 
                                              current damping :  0.200
 ITERATION  ENERGY          1e-ENERGY        2e-ENERGY     RMS[dD(SAO)]   TOL
   5  -415.47735875790    -1488.0658539     605.47045512    0.505D-02 0.323D-11
          Norm of current diis error: 0.17854    
          max. resid. norm for Fia-block=  1.104D-02 for orbital     16a1        
          max. resid. fock norm         =  1.119D-02 for orbital     16a1        
 mo-orthogonalization: Cholesky decomposition
          Delta Eig. =     7.7374679870 eV 
 
                                              current damping :  0.100
 ITERATION  ENERGY          1e-ENERGY        2e-ENERGY     RMS[dD(SAO)]   TOL
   6  -415.47988061059    -1488.2216587     605.62373802    0.308D-02 0.295D-11
          Norm of current diis error: 0.52477E-01
          max. resid. norm for Fia-block=  3.832D-03 for orbital     11a1        
          max. resid. fock norm         =  3.998D-03 for orbital     11a1        
          Delta Eig. =     1.3400925428 eV 
 
                                              current damping :  0.100
 ITERATION  ENERGY          1e-ENERGY        2e-ENERGY     RMS[dD(SAO)]   TOL
   7  -415.48020203831    -1488.2592884     605.66104634    0.124D-02 0.278D-11
          Norm of current diis error: 0.17103E-01
          max. resid. norm for Fia-block=  1.936D-03 for orbital      1b2        
          max. resid. fock norm         =  1.944D-03 for orbital      1b2        
          Delta Eig. =     0.1585141080 eV 
 
                                              current damping :  0.100
 ITERATION  ENERGY          1e-ENERGY        2e-ENERGY     RMS[dD(SAO)]   TOL
   8  -415.48024407569    -1488.2617860     605.66350189    0.384D-03 0.269D-11
          Norm of current diis error: 0.69268E-02
          max. resid. norm for Fia-block=  6.747D-04 for orbital     11a1        
          max. resid. fock norm         =  7.469D-04 for orbital     11a1        
          Delta Eig. =     0.0346575732 eV 
 
                                              current damping :  0.100
 ITERATION  ENERGY          1e-ENERGY        2e-ENERGY     RMS[dD(SAO)]   TOL
   9  -415.48025024306    -1488.2645536     605.66626331    0.558D-04 0.263D-11
          Norm of current diis error: 0.28135E-02
          max. resid. norm for Fia-block=  3.649D-04 for orbital      1a2        
          max. resid. fock norm         =  3.709D-04 for orbital      1a2        
          Delta Eig. =     0.0154625297 eV 
 
                                              current damping :  0.150
 ITERATION  ENERGY          1e-ENERGY        2e-ENERGY     RMS[dD(SAO)]   TOL
  10  -415.48025122454    -1488.2630558     605.66476453    0.176D-04 0.259D-11
          Norm of current diis error: 0.11317E-02
          max. resid. norm for Fia-block=  1.309D-04 for orbital      3b2        
          max. resid. fock norm         =  1.343D-04 for orbital      3b2        
 mo-orthogonalization: Cholesky decomposition
          Delta Eig. =     0.0046249262 eV 
 
                                              current damping :  0.200
 ITERATION  ENERGY          1e-ENERGY        2e-ENERGY     RMS[dD(SAO)]   TOL
  11  -415.48025140010    -1488.2636786     605.66538720    0.138D-04 0.255D-11
          Norm of current diis error: 0.41616E-03
          max. resid. norm for Fia-block=  6.423D-05 for orbital      1a2        
          max. resid. fock norm         =  6.450D-05 for orbital      1a2        
          Delta Eig. =     0.0010077657 eV 
 
                                              current damping :  0.250
 ITERATION  ENERGY          1e-ENERGY        2e-ENERGY     RMS[dD(SAO)]   TOL
  12  -415.48025142814    -1488.2633875     605.66509607    0.685D-05 0.251D-11
          Norm of current diis error: 0.17632E-03
          max. resid. norm for Fia-block=  2.767D-05 for orbital      3b2        
          max. resid. fock norm         =  2.827D-05 for orbital      3b2        
          Delta Eig. =     0.0005401056 eV 
 
                                              current damping :  0.300
 ITERATION  ENERGY          1e-ENERGY        2e-ENERGY     RMS[dD(SAO)]   TOL
  13  -415.48025143348    -1488.2635363     605.66524481    0.291D-05 0.247D-11
          Norm of current diis error: 0.92199E-04
          max. resid. norm for Fia-block=  1.285D-05 for orbital      3b2        
          max. resid. fock norm         =  1.317D-05 for orbital      3b2        
          Delta Eig. =     0.0002096783 eV 
 
                                              current damping :  0.350
 ITERATION  ENERGY          1e-ENERGY        2e-ENERGY     RMS[dD(SAO)]   TOL
  14  -415.48025143551    -1488.2634910     605.66519951    0.118D-05 0.242D-11
          Norm of current diis error: 0.47039E-04
          max. resid. norm for Fia-block=  8.908D-06 for orbital      3b2        
          max. resid. fock norm         =  8.939D-06 for orbital      3b2        
          Delta Eig. =     0.0000335200 eV 

 ENERGY & DENSITY CONVERGED !

 
                                              current damping :  0.400
 ITERATION  ENERGY          1e-ENERGY        2e-ENERGY     RMS[dD(SAO)]   TOL
  15  -415.48025143654    -1488.2635040     605.66521249    0.478D-06 0.240D-11
          max. resid. norm for Fia-block=  2.857D-06 for orbital      3b2        
          max. resid. fock norm         =  2.884D-06 for orbital      3b2        

 convergence criteria satisfied after 15 iterations


                  ------------------------------------------ 
                 |  total energy      =   -415.48025143654  |
                  ------------------------------------------ 
                 :  kinetic energy    =    414.92535145792  :
                 :  potential energy  =   -830.40560289446  :
                 :  virial theorem    =      1.99866443717  :
                 :  wavefunction norm =      1.00000000000  :
                  .......................................... 


 <geterg> : there is no data group $energy 


 orbitals $scfmo  will be written to file mos

    irrep                 12a1        13a1        14a1        15a1        16a1  
 eigenvalues H         -0.70401    -0.64782    -0.60856    -0.52422    -0.40741
            eV         -19.1571    -17.6282    -16.5598    -14.2650    -11.0862
 occupation              2.0000      2.0000      2.0000      2.0000      2.0000 

    irrep                 17a1        18a1        19a1        20a1        21a1  
 eigenvalues H          0.15591     0.16704     0.19063     0.20834     0.25967
            eV           4.2424      4.5455      5.1875      5.6693      7.0661

    irrep                  1a2         2a2         3a2         4a2         5a2  
 eigenvalues H         -0.45729    -0.32736     0.10158     0.23755     0.34152
            eV         -12.4436     -8.9079      2.7642      6.4642      9.2933
 occupation              2.0000      2.0000 

    irrep                  6a2         7a2         8a2         9a2        10a2  
 eigenvalues H          0.37721     0.43051     0.51887     0.58033     0.72336
            eV          10.2645     11.7149     14.1194     15.7917     19.6838

    irrep                  9b1        10b1        11b1        12b1        13b1  
 eigenvalues H         -0.74429    -0.62259    -0.59908    -0.52443    -0.49678
            eV         -20.2532    -16.9418    -16.3019    -14.2705    -13.5182
 occupation              2.0000      2.0000      2.0000      2.0000      2.0000 

    irrep                 14b1        15b1        16b1        17b1        18b1  
 eigenvalues H          0.17909     0.19371     0.20387     0.27707     0.32703
            eV           4.8732      5.2713      5.5477      7.5395      8.8990

    irrep                  1b2         2b2         3b2         4b2         5b2  
 eigenvalues H         -0.58746    -0.47903    -0.33406     0.05102     0.14351
            eV         -15.9857    -13.0351     -9.0902      1.3884      3.9052
 occupation              2.0000      2.0000      2.0000 

    irrep                  6b2         7b2         8b2         9b2        10b2  
 eigenvalues H          0.31617     0.34371     0.40869     0.47400     0.60765
            eV           8.6036      9.3530     11.1210     12.8982     16.5352
 
 
 
 
 ==============================================================================
                           electrostatic moments
 ==============================================================================

 reference point for electrostatic moments:    0.00000   0.00000   0.00000

 
              nuc           elec       ->  total
 ------------------------------------------------------------------------------
                          charge      
 ------------------------------------------------------------------------------
          68.000000     -68.000000      -0.000000
 
 ------------------------------------------------------------------------------
                       dipole moment  
 ------------------------------------------------------------------------------
   x       0.000000       0.000000       0.000000
   y       0.000000       0.000000       0.000000
   z     -19.650830      19.723418       0.072588
 
   | dipole moment | =     0.0726 a.u. =     0.1845 debye 
 
 ------------------------------------------------------------------------------
                     quadrupole moment
 ------------------------------------------------------------------------------
  xx     316.070846    -360.986698     -44.915852
  yy       0.000000     -45.777928     -45.777928
  zz     774.212159    -807.302819     -33.090660
  xy       0.000000       0.000000       0.000000
  xz      -0.000000       0.000000       0.000000
  yz       0.000000       0.000000       0.000000
 
     1/3  trace=     -41.261480
     anisotropy=      12.278948
 
 ==============================================================================
 
 


    ------------------------------------------------------------------------
         total  cpu-time :  4 minutes and 11 seconds
         total wall-time :  4 minutes and 11 seconds
    ------------------------------------------------------------------------


   ****  dscf : all done  ****


    2024-02-12 15:27:16.034 

