 operating system is UNIX !
 hostname is         elgar

 escf (elgar) : TURBOMOLE V7.0( 19819 ) 16 Jun 2015 at 11:29:46
 Copyright (C) 2015 TURBOMOLE GmbH, Karlsruhe


    2024-02-12 15:31:53.258 




                                e s c f

                       quantum chemistry group
                       university of karlsruhe
                               germany


          integral direct evaluation of 

                    * excitation energies and transition moments 
                    * dynamic response properties 
                    * stabilities



          references (see also programs dscf and ridft) 

          implementation and benchmarks (review) 
          F. Furche and D. Rappoport,  
          "Density functional methods for excited states: 
          equilibrium structure and electronic spectra",
          ch. III of "Computational Photochemistry", ed. by 
          M. Olivucci, vol. 16 of "Theoretical and Computational 
          Chemistry", Elsevier, Amsterdam, 2005.

          two-component TDDFT with spin-orbit coupling 
          M. Kuehn and F. Weigend, 
          J. Chem. Theory Comput. 9 (2013), 5341.

          GW quasi particle energies
          M. J. van Setten, F. Weigend, and F. Evers,
          J. Chem. Theory Comput. 9 (2013), 232.

          Current-density dependent meta-GGA Linear Response
          J. E. Bates and F. Furche, 
          J. Chem. Phys. 137 (2012), 164105.

          spin-flip method 
          M. Kuehn and F. Weigend, 
          Chem. Phys. Chem. 12 (2011), 3331.

          RI-J method 
          R. Bauernschmitt, M. Haeser, O. Treutler, and R. Ahlrichs,
          Chem. Phys. Lett. 264 (1997), 573.

          density functional implementation               
          R. Bauernschmitt and R. Ahlrichs,
          Chem. Phys. Lett. 256 (1996), 454.
          R. Bauernschmitt and R. Ahlrichs,
          J. Chem. Phys. 104 (1996), 9047.

          UHF extension (RPA and CIS)
          C. Ochsenfeld, J. Gauss, and R. Ahlrichs, 
          J. Chem. Phys. 103 (1995), 7401.

          integral direct algorithm                 
          H. Weiss, R. Ahlrichs, and M. Haeser, 
          J. Chem. Phys. 99 (1993), 1262.
                                     




              +--------------------------------------------------+
              | Atomic coordinate, charge and isotop information |
              +--------------------------------------------------+

                    atomic coordinates            atom    charge  isotop
         -1.34851448    0.00000000   -0.36723389    c      6.000     0
          1.34851448    0.00000000   -0.36723389    c      6.000     0
         -2.65971822    0.00000000    1.96258750    c      6.000     0
         -1.33705869    0.00000000    4.19230117    c      6.000     0
          1.33705869    0.00000000    4.19230117    c      6.000     0
          2.65971822    0.00000000    1.96258750    c      6.000     0
          2.67165471    0.00000000   -2.57471220    n      7.000     0
         -2.67165471    0.00000000   -2.57471220    n      7.000     0
         -1.33982622    0.00000000   -4.66308312    c      6.000     0
          1.33982622    0.00000000   -4.66308312    c      6.000     0
         -2.36641046    0.00000000   -6.44056555    h      1.000     0
          2.36641046    0.00000000   -6.44056555    h      1.000     0
         -4.70524645    0.00000000    1.91415746    h      1.000     0
         -2.34078894    0.00000000    5.97654862    h      1.000     0
          2.34078894    0.00000000    5.97654862    h      1.000     0
          4.70524645    0.00000000    1.91415746    h      1.000     0
 
       center of nuclear mass  :    0.00000000    0.00000000   -0.32414992
       center of nuclear charge:    0.00000000    0.00000000   -0.28898279

              +--------------------------------------------------+
              |               basis set information              |
              +--------------------------------------------------+

              we will work with the 1s 3p 5d 7f 9g ... basis set
              ...i.e. with spherical basis functions...

   type   atoms  prim   cont   basis
   ---------------------------------------------------------------------------
    c        8     46     31   def2-TZVP   [5s3p2d1f|11s6p2d1f]
    n        2     46     31   def2-TZVP   [5s3p2d1f|11s6p2d1f]
    h        6      8      6   def2-TZVP   [3s1p|5s1p]
   ---------------------------------------------------------------------------
   total:   16    508    346
   ---------------------------------------------------------------------------

   total number of primitive shells          :   46
   total number of contracted shells         :  134
   total number of cartesian basis functions :  396
   total number of SCF-basis functions       :  346


 residuum convergence criterium   :  0.10E-04


 integral neglect threshold       :  0.84E-11
 integral storage threshold THIZE :  0.10E-04
 integral storage threshold THIME :         5

 CI SINGLES TRIPLET-CALCULATION (TAMM-DANCOFF-APPROXIMATION)

 symmetry group of the molecule :   c2v

 the group has the following generators :
   c2(z)
   mirror plane sigma(xz)

    4 symmetry operations found

 there are 4 real representations :   a1   a2   b1   b2  

 maximum number of shells which are related by symmetry :  2

 IRREPs of excited states :   a1   a2   b1   b2  
 

 determining totally symmetric integral contributions 
    - equivalent to irreducible tensor elements - 
 which can be formed within each triple of representations :

             representation triple      contributions

              a1    a1    a1              1
              a1    a2    a2              1
              a1    b1    b1              1
              a1    b2    b2              1
              a2    a1    a2              1
              a2    a2    a1              1
              a2    b1    b2              1
              a2    b2    b1              1
              b1    a1    b1              1
              b1    a2    b2              1
              b1    b1    a1              1
              b1    b2    a2              1
              b2    a1    b2              1
              b2    a2    b1              1
              b2    b1    a2              1
              b2    b2    a1              1

    mo occupation :
   irrep   mo's   occupied
    a1     120       16
    a2      53        2
    b1     120       13
    b2      53        3
 
 number of basis functions   :          346
 number of occupied orbitals :           34
 

 biggest AO integral is expected to be     6.862573055
  MOs are in ASCII format !


 reading orbital data $scfmo  from file mos . 

 orbital characterization : scfconv=7
 
 all orbitals will be included in the transformation

 number of non-frozen orbitals          :   346
 number of non-frozen occupied orbitals :    34



 dimension of super-tensorspace: 1

          IRREP   tensor space dimension   number of roots

           a1             3307                  10
           a2             1995                  10
           b1             3317                  10
           b2             1989                  10

 maximum number of Davidson iterations set to   25


 machine precision: 2.22D-16


 logfile cist_a1   will be constructed

 logfile cist_a2   will be constructed

 logfile cist_b1   will be constructed

 logfile cist_b2   will be constructed


                       Block Davidson iteration


 total number of roots to be determined:  40


 maximum core memory set to   500 MB,
 corresponding to      412 vectors in CAO basis


 maximum number of simultaneously treated vectors (including degeneracy):       72


 Iteration IRREP Converged      Max. Euclidean
                 roots          residual norm

    1       a1       0        1.121498638912355D-01
            a2       0        1.562613765779413D-01
            b1       0        1.235411541706544D-01
            b2       0        1.401227889296620D-01
 
    2       a1       0        4.769800043811337D-02
            a2       0        4.398888388298197D-02
            b1       0        6.719860803751149D-02
            b2       0        3.438452894415148D-02
 
    3       a1       0        2.793314589713245D-02
            a2       0        3.520319855651188D-02
            b1       0        3.298985250640644D-02
            b2       0        5.507311526075057D-02
 
    4       a1       0        1.894470852742921D-02
            a2       0        5.884452872490802D-02
            b1       0        1.497504443475812D-02
            b2       0        3.761597595720104D-02
 
    5       a1       0        1.124593067390041D-02
            a2       0        8.269801359304498D-02
            b1       0        9.747634053212016D-03
            b2       0        2.632555218236280D-02
 
    6       a1       0        5.967196644766143D-03
            a2       0        2.836861013403882D-02
            b1       0        9.516393513725815D-03
            b2       0        3.355363258279451D-02
 
    7       a1       3        2.676237200294937D-03
            a2       0        1.108474594344939D-02
            b1       3        1.008697065837718D-02
            b2       0        7.671268940271154D-03
 
    8       a1       4        1.032512857243053D-03
            a2       2        3.305902290412521D-03
            b1       5        5.942883032261191D-03
            b2       1        2.082306274861135D-03
 
    9       a1       8        2.870411153323105D-04
            a2       4        7.728385493303853D-04
            b1       7        1.815244828203744D-03
            b2       5        5.397575648199633D-04
 
   10       a1       9        7.175158174299955D-05
            a2       5        1.450215080469417D-04
            b1       7        5.206329633675622D-04
            b2       6        1.157363294361115D-04
 
   11       a1       9        2.089093085113217D-05
            a2       8        2.662667549434970D-05
            b1       8        1.562322083201607D-04
            b2       7        2.266951311714663D-05
 
   12       a1      10        9.986295578586333D-06
            a2      10        9.503720008306562D-06
            b1       8        4.581616400949855D-05
            b2      10        9.168760048672763D-06
 
   13       a1      10        9.986295578586333D-06
            a2      10        9.503720008306562D-06
            b1       9        1.226473848702002D-05
            b2      10        9.168760048672763D-06
 
   14       a1      10        9.986295578586333D-06
            a2      10        9.503720008306562D-06
            b1      10        8.401720735621532D-06
            b2      10        9.168760048672763D-06
 

 converged!

 Eigenpairs written on logfile cist_a1  

 Eigenpairs written on logfile cist_a2  

 Eigenpairs written on logfile cist_b1  

 Eigenpairs written on logfile cist_b2  



 IRREP   Vector     Eigenvalue           Euclidean residual norm

  a1        1    1.375986958058060D-01    3.810992094581025D-06
            2    1.802860447284804D-01    9.986295578586333D-06
            3    2.082008519766904D-01    8.293758150225363D-06
            4    2.545862293897890D-01    3.480428098367278D-06
            5    2.936121126601805D-01    3.014692471961341D-06
            6    3.107430754728615D-01    2.331396748945247D-06
            7    3.623626346203631D-01    8.192342245487020D-06
            8    3.797859645750081D-01    3.684026674107590D-06
            9    3.874011906519230D-01    5.612015449187810D-06
           10    4.037742711292442D-01    4.868532395054318D-06

  a2        1    1.934778832857548D-01    9.503720008306562D-06
            2    2.618376553183790D-01    7.580771352671710D-06
            3    2.987402950684876D-01    3.588850385434120D-06
            4    3.092234084575908D-01    4.242993706610458D-06
            5    3.194220639617100D-01    6.072038791280506D-06
            6    3.511988071285007D-01    5.820631256031706D-06
            7    3.549254779744858D-01    5.676861286754086D-06
            8    3.565230648184475D-01    5.201157082598270D-06
            9    3.595685734963484D-01    7.812075772091256D-06
           10    3.685383223392888D-01    5.912396368909528D-06

  b1        1    9.954928840974819D-02    5.718013123775031D-06
            2    1.561183896716858D-01    8.401720735621532D-06
            3    1.739276327985093D-01    7.893348033478768D-06
            4    2.714990168578760D-01    4.916145940417774D-06
            5    2.852390663269101D-01    8.219633046623502D-06
            6    3.489358639646305D-01    5.882039932960076D-06
            7    3.855310897927545D-01    7.400739337513022D-06
            8    3.865295699919675D-01    3.780420089736729D-06
            9    4.089310759277480D-01    4.233078169248614D-06
           10    4.128813896566221D-01    3.534576036858082D-06

  b2        1    1.441441961981996D-01    2.501447792790163D-06
            2    3.063574829063909D-01    8.216765331060327D-06
            3    3.111646671759933D-01    2.270911881647178D-06
            4    3.133474593669325D-01    6.817619969413588D-06
            5    3.333767381578983D-01    9.168760048672763D-06
            6    3.404997630088169D-01    3.365513792529211D-06
            7    3.458073165360483D-01    6.615782502036784D-06
            8    3.552453001809549D-01    2.154686970234999D-06
            9    3.629007583897497D-01    4.408748158908150D-06
           10    3.644967779273522D-01    4.172936122007686D-06
 




                    Selection rules for point group c2v 


 Subduction with respect to c2v :

    Polar vector representation: a1, b1, b2                  

    Axial vector representation: a2, b1, b2                  

    Symmetric second rank tensor representation: a1, a2, b1, b2              




                            Ground state


 Total energy:                           -415.4802514365000    

 Charge:

               elec          nuc         total

           -68.000000    68.000000    -0.000000


 Electric dipole moment:

               elec          nuc         total   

    x        0.000000     0.000000     0.000000    Norm:              0.072588
    y        0.000000     0.000000     0.000000
    z       19.723418   -19.650830     0.072588    Norm / debye:      0.184502


 Electric quadrupole moment:

               elec          nuc         total   

   xx     -360.986698   316.070846   -44.915852
   yy      -45.777928     0.000000   -45.777928    1/3*trace:       -41.261480
   zz     -807.302819   774.212159   -33.090660
   xy        0.000000     0.000000     0.000000
   xz        0.000000    -0.000000    -0.000000    Anisotropy:       12.278948
   yz        0.000000     0.000000     0.000000



 ==============================================================================

                              I R R E P   a1  

 ==============================================================================


 Excitation is electric dipole allowed

 Excitation is magnetic dipole forbidden

 Excitation is electric quadrupole allowed




                         1 triplet a1 excitation


 Total energy:                           -415.3426527406942    

 Excitation energy:                      0.1375986958058060    

 Excitation energy / eV:                  3.744252624047104    

 Excitation energy / nm:                  331.1321549464676    

 Excitation energy / cm^(-1):             30199.42294678091    


 Oscillator strength:

    velocity representation:              1.751962106071703    

    length representation:                1.132845214788274    

    mixed representation:                 1.408794480523584    


 Rotatory strength:

    velocity representation:              0.000000000000000    

    velocity rep. / 10^(-40)erg*cm^3:     0.000000000000000    

    length representation:                0.000000000000000    

    length rep. / 10^(-40)erg*cm^3:       0.000000000000000    


 Dominant contributions:

    occ. orbital  energy / eV   virt. orbital  energy / eV   |coeff.|^2*100
       3 b2         -9.09           4 b2          1.39           87.6
       2 b2        -13.04           5 b2          3.91            3.6
 

 S^2 expectation value:                     2.00000000


 Change of electron number:

             0.000000


 Electric transition dipole moment (velocity rep.):

    x        0.000000        Norm:                  4.370195
    y        0.000000
    z        4.370195        Norm / debye:         11.108012


 Electric transition dipole moment (length rep.):

    x        0.000000        Norm:                  3.514178
    y        0.000000
    z        3.514178        Norm / debye:          8.932217


 Magnetic transition dipole moment / i:

    x        0.000000        Norm:                  0.000000
    y        0.000000
    z        0.000000        Norm / Bohr mag.:      0.000000


 Electric quadrupole transition moment:

   xx        0.233703
   yy       -0.260033        1/3*trace:            -1.963729
   zz       -5.864856
   xy        0.000000
   xz        0.000000        Anisotropy:            5.867292
   yz        0.000000




                         2 triplet a1 excitation


 Total energy:                           -415.2999653917715    

 Excitation energy:                      0.1802860447284804    

 Excitation energy / eV:                  4.905834987029021    

 Excitation energy / nm:                  252.7281173017059    

 Excitation energy / cm^(-1):             39568.21308714693    


 Oscillator strength:

    velocity representation:             0.7449117632259343    

    length representation:               0.5498790155171891    

    mixed representation:                0.6400088647900514    


 Rotatory strength:

    velocity representation:              0.000000000000000    

    velocity rep. / 10^(-40)erg*cm^3:     0.000000000000000    

    length representation:                0.000000000000000    

    length rep. / 10^(-40)erg*cm^3:       0.000000000000000    


 Dominant contributions:

    occ. orbital  energy / eV   virt. orbital  energy / eV   |coeff.|^2*100
       2 a2         -8.91           3 a2          2.76           61.6
       3 b2         -9.09           5 b2          3.91           11.8
       2 b2        -13.04           4 b2          1.39           11.4
       2 a2         -8.91           4 a2          6.46            9.0
 

 S^2 expectation value:                     2.00000000


 Change of electron number:

             0.000000


 Electric transition dipole moment (velocity rep.):

    x        0.000000        Norm:                  2.489528
    y        0.000000
    z        2.489528        Norm / debye:          6.327796


 Electric transition dipole moment (length rep.):

    x        0.000000        Norm:                  2.138938
    y        0.000000
    z        2.138938        Norm / debye:          5.436679


 Magnetic transition dipole moment / i:

    x        0.000000        Norm:                  0.000000
    y        0.000000
    z        0.000000        Norm / Bohr mag.:      0.000000


 Electric quadrupole transition moment:

   xx       -2.114203
   yy        0.278653        1/3*trace:             3.591797
   zz       12.610941
   xy        0.000000
   xz        0.000000        Anisotropy:           13.686507
   yz        0.000000




                         3 triplet a1 excitation


 Total energy:                           -415.2720505845233    

 Excitation energy:                      0.2082008519766904    

 Excitation energy / eV:                  5.665435866069249    

 Excitation energy / nm:                  218.8432574958971    

 Excitation energy / cm^(-1):             45694.80509900949    


 Oscillator strength:

    velocity representation:             0.8581456870243503E-01

    length representation:               0.6513938178758147E-01

    mixed representation:                0.7476568700710610E-01


 Rotatory strength:

    velocity representation:              0.000000000000000    

    velocity rep. / 10^(-40)erg*cm^3:     0.000000000000000    

    length representation:                0.000000000000000    

    length rep. / 10^(-40)erg*cm^3:       0.000000000000000    


 Dominant contributions:

    occ. orbital  energy / eV   virt. orbital  energy / eV   |coeff.|^2*100
       3 b2         -9.09           5 b2          3.91           29.9
       2 a2         -8.91           3 a2          2.76           26.8
       2 b2        -13.04           4 b2          1.39           20.5
       3 b2         -9.09           4 b2          1.39            5.2
       1 b2        -15.99           4 b2          1.39            3.2
       1 a2        -12.44           3 a2          2.76            3.2
       2 a2         -8.91           4 a2          6.46            3.0
 

 S^2 expectation value:                     2.00000000


 Change of electron number:

            -0.000000


 Electric transition dipole moment (velocity rep.):

    x        0.000000        Norm:                  0.786294
    y        0.000000
    z       -0.786294        Norm / debye:          1.998575


 Electric transition dipole moment (length rep.):

    x        0.000000        Norm:                  0.685056
    y        0.000000
    z       -0.685056        Norm / debye:          1.741252


 Magnetic transition dipole moment / i:

    x        0.000000        Norm:                  0.000000
    y        0.000000
    z        0.000000        Norm / Bohr mag.:      0.000000


 Electric quadrupole transition moment:

   xx       -3.419529
   yy        0.484601        1/3*trace:             3.225948
   zz       12.612771
   xy        0.000000
   xz        0.000000        Anisotropy:           14.480494
   yz        0.000000




                         4 triplet a1 excitation


 Total energy:                           -415.2256652071102    

 Excitation energy:                      0.2545862293897890    

 Excitation energy / eV:                  6.927646747352047    

 Excitation energy / nm:                  178.9702167678495    

 Excitation energy / cm^(-1):             55875.21867662944    


 Oscillator strength:

    velocity representation:             0.5646909593222437E-01

    length representation:               0.3353853962331323E-01

    mixed representation:                0.4351885811249628E-01


 Rotatory strength:

    velocity representation:              0.000000000000000    

    velocity rep. / 10^(-40)erg*cm^3:     0.000000000000000    

    length representation:                0.000000000000000    

    length rep. / 10^(-40)erg*cm^3:       0.000000000000000    


 Dominant contributions:

    occ. orbital  energy / eV   virt. orbital  energy / eV   |coeff.|^2*100
       3 b2         -9.09           5 b2          3.91           48.1
       2 a2         -8.91           4 a2          6.46           12.0
       2 b2        -13.04           4 b2          1.39            9.7
       1 b2        -15.99           5 b2          3.91            8.4
       1 b2        -15.99           4 b2          1.39            7.2
       1 a2        -12.44           3 a2          2.76            5.0
 

 S^2 expectation value:                     2.00000000


 Change of electron number:

            -0.000000


 Electric transition dipole moment (velocity rep.):

    x        0.000000        Norm:                  0.576811
    y        0.000000
    z       -0.576811        Norm / debye:          1.466119


 Electric transition dipole moment (length rep.):

    x        0.000000        Norm:                  0.444529
    y        0.000000
    z       -0.444529        Norm / debye:          1.129889


 Magnetic transition dipole moment / i:

    x        0.000000        Norm:                  0.000000
    y        0.000000
    z        0.000000        Norm / Bohr mag.:      0.000000


 Electric quadrupole transition moment:

   xx       -4.510438
   yy        0.210607        1/3*trace:             0.100761
   zz        4.602112
   xy        0.000000
   xz        0.000000        Anisotropy:            7.893420
   yz        0.000000




                         5 triplet a1 excitation


 Total energy:                           -415.1866393238398    

 Excitation energy:                      0.2936121126601805    

 Excitation energy / eV:                  7.989595517906844    

 Excitation energy / nm:                  155.1821287180134    

 Excitation energy / cm^(-1):             64440.40999513991    


 Oscillator strength:

    velocity representation:             0.2999063424149614E-02

    length representation:               0.8882614077615933E-02

    mixed representation:                0.5161348950711859E-02


 Rotatory strength:

    velocity representation:              0.000000000000000    

    velocity rep. / 10^(-40)erg*cm^3:     0.000000000000000    

    length representation:                0.000000000000000    

    length rep. / 10^(-40)erg*cm^3:       0.000000000000000    


 Dominant contributions:

    occ. orbital  energy / eV   virt. orbital  energy / eV   |coeff.|^2*100
       2 b2        -13.04           5 b2          3.91           22.2
       1 b2        -15.99           4 b2          1.39           20.2
       1 a2        -12.44           3 a2          2.76           17.5
       2 b2        -13.04           4 b2          1.39            8.1
       1 a2        -12.44           4 a2          6.46            7.4
       2 a2         -8.91           5 a2          9.29            4.8
       2 a2         -8.91           3 a2          2.76            3.2
       3 b2         -9.09           4 b2          1.39            2.9
       2 a2         -8.91           6 a2         10.26            2.6
       3 b2         -9.09           5 b2          3.91            1.6
 

 S^2 expectation value:                     2.00000000


 Change of electron number:

            -0.000000


 Electric transition dipole moment (velocity rep.):

    x        0.000000        Norm:                  0.123780
    y        0.000000
    z       -0.123780        Norm / debye:          0.314620


 Electric transition dipole moment (length rep.):

    x        0.000000        Norm:                  0.213024
    y        0.000000
    z        0.213024        Norm / debye:          0.541458


 Magnetic transition dipole moment / i:

    x        0.000000        Norm:                  0.000000
    y        0.000000
    z        0.000000        Norm / Bohr mag.:      0.000000


 Electric quadrupole transition moment:

   xx        2.323040
   yy        0.508401        1/3*trace:             1.410554
   zz        1.400221
   xy        0.000000
   xz        0.000000        Anisotropy:            1.571600
   yz        0.000000




                         6 triplet a1 excitation


 Total energy:                           -415.1695083610271    

 Excitation energy:                      0.3107430754728615    

 Excitation energy / eV:                  8.455752933776244    

 Excitation energy / nm:                  146.6270892462067    

 Excitation energy / cm^(-1):             68200.22173198851    


 Oscillator strength:

    velocity representation:             0.1103876927041341    

    length representation:               0.1726605316674457    

    mixed representation:                0.1380565018817963    


 Rotatory strength:

    velocity representation:              0.000000000000000    

    velocity rep. / 10^(-40)erg*cm^3:     0.000000000000000    

    length representation:                0.000000000000000    

    length rep. / 10^(-40)erg*cm^3:       0.000000000000000    


 Dominant contributions:

    occ. orbital  energy / eV   virt. orbital  energy / eV   |coeff.|^2*100
       1 a2        -12.44           3 a2          2.76           56.8
       1 b2        -15.99           4 b2          1.39           15.1
       2 b2        -13.04           4 b2          1.39            5.8
       2 b2        -13.04           5 b2          3.91            4.2
       2 a2         -8.91           4 a2          6.46            4.2
       1 b2        -15.99           5 b2          3.91            3.2
       1 a2        -12.44           5 a2          9.29            2.2
 

 S^2 expectation value:                     2.00000000


 Change of electron number:

             0.000000


 Electric transition dipole moment (velocity rep.):

    x        0.000000        Norm:                  0.729970
    y        0.000000
    z       -0.729970        Norm / debye:          1.855414


 Electric transition dipole moment (length rep.):

    x        0.000000        Norm:                  0.912938
    y        0.000000
    z       -0.912938        Norm / debye:          2.320475


 Magnetic transition dipole moment / i:

    x        0.000000        Norm:                  0.000000
    y        0.000000
    z        0.000000        Norm / Bohr mag.:      0.000000


 Electric quadrupole transition moment:

   xx        1.603664
   yy       -0.436350        1/3*trace:             1.894317
   zz        4.515635
   xy        0.000000
   xz        0.000000        Anisotropy:            4.310649
   yz        0.000000




                         7 triplet a1 excitation


 Total energy:                           -415.1178888018796    

 Excitation energy:                      0.3623626346203631    

 Excitation energy / eV:                  9.860393207859659    

 Excitation energy / nm:                  125.7396549943275    

 Excitation energy / cm^(-1):             79529.40541278324    


 Oscillator strength:

    velocity representation:             0.1469519820411015    

    length representation:               0.1071207961512685    

    mixed representation:                0.1254655861670829    


 Rotatory strength:

    velocity representation:              0.000000000000000    

    velocity rep. / 10^(-40)erg*cm^3:     0.000000000000000    

    length representation:                0.000000000000000    

    length rep. / 10^(-40)erg*cm^3:       0.000000000000000    


 Dominant contributions:

    occ. orbital  energy / eV   virt. orbital  energy / eV   |coeff.|^2*100
      16 a1        -11.09          18 a1          4.55           40.6
      16 a1        -11.09          19 a1          5.19           26.5
      16 a1        -11.09          17 a1          4.24            9.0
      16 a1        -11.09          20 a1          5.67            3.6
      13 b1        -13.52          15 b1          5.27            3.2
      13 b1        -13.52          17 b1          7.54            2.3
      13 b1        -13.52          14 b1          4.87            1.7
      16 a1        -11.09          21 a1          7.07            1.7
      15 a1        -14.26          18 a1          4.55            1.2
      14 a1        -16.56          18 a1          4.55            0.9
 

 S^2 expectation value:                     2.00000000


 Change of electron number:

            -0.000000


 Electric transition dipole moment (velocity rep.):

    x        0.000000        Norm:                  0.779941
    y        0.000000
    z       -0.779941        Norm / debye:          1.982427


 Electric transition dipole moment (length rep.):

    x        0.000000        Norm:                  0.665903
    y        0.000000
    z       -0.665903        Norm / debye:          1.692569


 Magnetic transition dipole moment / i:

    x        0.000000        Norm:                  0.000000
    y        0.000000
    z        0.000000        Norm / Bohr mag.:      0.000000


 Electric quadrupole transition moment:

   xx       -2.867822
   yy       -0.575711        1/3*trace:             1.618800
   zz        8.299933
   xy        0.000000
   xz        0.000000        Anisotropy:           10.216398
   yz        0.000000




                         8 triplet a1 excitation


 Total energy:                           -415.1004654719250    

 Excitation energy:                      0.3797859645750081    

 Excitation energy / eV:                  10.33450634185613    

 Excitation energy / nm:                  119.9711335067023    

 Excitation energy / cm^(-1):             83353.38432014319    


 Oscillator strength:

    velocity representation:             0.4080056009399501    

    length representation:               0.3083915567057182    

    mixed representation:                0.3547188780126077    


 Rotatory strength:

    velocity representation:              0.000000000000000    

    velocity rep. / 10^(-40)erg*cm^3:     0.000000000000000    

    length representation:                0.000000000000000    

    length rep. / 10^(-40)erg*cm^3:       0.000000000000000    


 Dominant contributions:

    occ. orbital  energy / eV   virt. orbital  energy / eV   |coeff.|^2*100
      16 a1        -11.09          19 a1          5.19           47.3
      16 a1        -11.09          18 a1          4.55           22.9
      16 a1        -11.09          20 a1          5.67            5.1
      16 a1        -11.09          17 a1          4.24            4.0
      13 b1        -13.52          17 b1          7.54            2.2
      14 a1        -16.56          18 a1          4.55            1.6
      15 a1        -14.26          18 a1          4.55            1.4
      12 a1        -19.16          18 a1          4.55            1.1
      16 a1        -11.09          29 a1         14.23            1.0
      16 a1        -11.09          21 a1          7.07            0.8
      13 a1        -17.63          18 a1          4.55            0.8
      13 b1        -13.52          16 b1          5.55            0.7
      10 b1        -16.94          15 b1          5.27            0.7
      11 b1        -16.30          15 b1          5.27            0.7
 

 S^2 expectation value:                     2.00000000


 Change of electron number:

            -0.000000


 Electric transition dipole moment (velocity rep.):

    x        0.000000        Norm:                  1.269431
    y        0.000000
    z        1.269431        Norm / debye:          3.226597


 Electric transition dipole moment (length rep.):

    x        0.000000        Norm:                  1.103640
    y        0.000000
    z        1.103640        Norm / debye:          2.805194


 Magnetic transition dipole moment / i:

    x        0.000000        Norm:                  0.000000
    y        0.000000
    z        0.000000        Norm / Bohr mag.:      0.000000


 Electric quadrupole transition moment:

   xx       -1.684237
   yy       -1.080929        1/3*trace:            -4.931986
   zz      -12.030791
   xy        0.000000
   xz        0.000000        Anisotropy:           10.661019
   yz        0.000000




                         9 triplet a1 excitation


 Total energy:                           -415.0928502458481    

 Excitation energy:                      0.3874011906519230    

 Excitation energy / eV:                  10.54172727555918    

 Excitation energy / nm:                  117.6128358906835    

 Excitation energy / cm^(-1):             85024.73325107110    


 Oscillator strength:

    velocity representation:             0.3595956889291480E-02

    length representation:               0.3374652947587039E-02

    mixed representation:                0.3483547978117054E-02


 Rotatory strength:

    velocity representation:              0.000000000000000    

    velocity rep. / 10^(-40)erg*cm^3:     0.000000000000000    

    length representation:                0.000000000000000    

    length rep. / 10^(-40)erg*cm^3:       0.000000000000000    


 Dominant contributions:

    occ. orbital  energy / eV   virt. orbital  energy / eV   |coeff.|^2*100
       2 a2         -8.91           4 a2          6.46           49.1
       2 b2        -13.04           4 b2          1.39           30.3
       1 a2        -12.44           3 a2          2.76            6.0
       3 b2         -9.09           5 b2          3.91            2.8
       1 b2        -15.99           4 b2          1.39            2.5
 

 S^2 expectation value:                     2.00000000


 Change of electron number:

            -0.000000


 Electric transition dipole moment (velocity rep.):

    x        0.000000        Norm:                  0.117997
    y        0.000000
    z        0.117997        Norm / debye:          0.299922


 Electric transition dipole moment (length rep.):

    x        0.000000        Norm:                  0.114309
    y        0.000000
    z        0.114309        Norm / debye:          0.290546


 Magnetic transition dipole moment / i:

    x        0.000000        Norm:                  0.000000
    y        0.000000
    z        0.000000        Norm / Bohr mag.:      0.000000


 Electric quadrupole transition moment:

   xx       -0.653235
   yy        0.484828        1/3*trace:             0.225251
   zz        0.844159
   xy        0.000000
   xz        0.000000        Anisotropy:            1.353974
   yz        0.000000




                        10 triplet a1 excitation


 Total energy:                           -415.0764771653708    

 Excitation energy:                      0.4037742711292442    

 Excitation energy / eV:                  10.98726165495086    

 Excitation energy / nm:                  112.8436255548725    

 Excitation energy / cm^(-1):             88618.20904225255    


 Oscillator strength:

    velocity representation:             0.1878112098915941    

    length representation:               0.1306032190614091    

    mixed representation:                0.1566165654956721    


 Rotatory strength:

    velocity representation:              0.000000000000000    

    velocity rep. / 10^(-40)erg*cm^3:     0.000000000000000    

    length representation:                0.000000000000000    

    length rep. / 10^(-40)erg*cm^3:       0.000000000000000    


 Dominant contributions:

    occ. orbital  energy / eV   virt. orbital  energy / eV   |coeff.|^2*100
      16 a1        -11.09          17 a1          4.24           26.2
      15 a1        -14.26          17 a1          4.24           26.1
      16 a1        -11.09          20 a1          5.67            8.6
      10 b1        -16.94          14 b1          4.87            5.3
      16 a1        -11.09          18 a1          4.55            5.2
      12 b1        -14.27          14 b1          4.87            3.0
      12 b1        -14.27          16 b1          5.55            1.8
      16 a1        -11.09          26 a1         11.86            1.5
      11 b1        -16.30          16 b1          5.55            1.4
      15 a1        -14.26          20 a1          5.67            1.3
      15 a1        -14.26          26 a1         11.86            1.2
      15 a1        -14.26          18 a1          4.55            1.2
      13 a1        -17.63          20 a1          5.67            1.1
      11 b1        -16.30          14 b1          4.87            1.1
      16 a1        -11.09          19 a1          5.19            0.9
      13 a1        -17.63          17 a1          4.24            0.9
      10 b1        -16.94          24 b1         14.67            0.6
       9 b1        -20.25          14 b1          4.87            0.5
      10 b1        -16.94          15 b1          5.27            0.5
      13 a1        -17.63          18 a1          4.55            0.4
      11 a1        -19.94          20 a1          5.67            0.4
      15 a1        -14.26          32 a1         15.94            0.4
      11 b1        -16.30          24 b1         14.67            0.4
      15 a1        -14.26          30 a1         14.49            0.3
 

 S^2 expectation value:                     2.00000000


 Change of electron number:

             0.000000


 Electric transition dipole moment (velocity rep.):

    x        0.000000        Norm:                  0.835290
    y        0.000000
    z       -0.835290        Norm / debye:          2.123110


 Electric transition dipole moment (length rep.):

    x        0.000000        Norm:                  0.696552
    y        0.000000
    z       -0.696552        Norm / debye:          1.770471


 Magnetic transition dipole moment / i:

    x        0.000000        Norm:                  0.000000
    y        0.000000
    z        0.000000        Norm / Bohr mag.:      0.000000


 Electric quadrupole transition moment:

   xx        8.413247
   yy        0.259924        1/3*trace:             0.197911
   zz       -8.079437
   xy        0.000000
   xz        0.000000        Anisotropy:           14.283386
   yz        0.000000



 ==============================================================================

                              I R R E P   a2  

 ==============================================================================


 Excitation is electric dipole forbidden

 Excitation is magnetic dipole allowed

 Excitation is electric quadrupole allowed




                         1 triplet a2 excitation


 Total energy:                           -415.2867735532142    

 Excitation energy:                      0.1934778832857548    

 Excitation energy / eV:                  5.264803332221694    

 Excitation energy / nm:                  235.4964396251212    

 Excitation energy / cm^(-1):             42463.48698275873    


 Oscillator strength:

    velocity representation:              0.000000000000000    

    length representation:                0.000000000000000    

    mixed representation:                 0.000000000000000    


 Rotatory strength:

    velocity representation:              0.000000000000000    

    velocity rep. / 10^(-40)erg*cm^3:     0.000000000000000    

    length representation:                0.000000000000000    

    length rep. / 10^(-40)erg*cm^3:       0.000000000000000    


 Dominant contributions:

    occ. orbital  energy / eV   virt. orbital  energy / eV   |coeff.|^2*100
      13 b1        -13.52           4 b2          1.39           61.6
      13 b1        -13.52           5 b2          3.91           13.7
      16 a1        -11.09           4 a2          6.46           10.2
      16 a1        -11.09           3 a2          2.76            3.4
      16 a1        -11.09           5 a2          9.29            2.1
 

 S^2 expectation value:                     2.00000000


 Change of electron number:

             0.000000


 Electric transition dipole moment (velocity rep.):

    x        0.000000        Norm:                  0.000000
    y        0.000000
    z        0.000000        Norm / debye:          0.000000


 Electric transition dipole moment (length rep.):

    x        0.000000        Norm:                  0.000000
    y        0.000000
    z        0.000000        Norm / debye:          0.000000


 Magnetic transition dipole moment / i:

    x        0.000000        Norm:                  0.007125
    y        0.000000
    z       -0.007125        Norm / Bohr mag.:      1.952806


 Electric quadrupole transition moment:

   xx        0.000000
   yy        0.000000        1/3*trace:             0.000000
   zz        0.000000
   xy       -2.104162
   xz        0.000000        Anisotropy:            3.644516
   yz        0.000000




                         2 triplet a2 excitation


 Total energy:                           -415.2184137811816    

 Excitation energy:                      0.2618376553183790    

 Excitation energy / eV:                  7.124968171092318    

 Excitation energy / nm:                  174.0137514010262    

 Excitation energy / cm^(-1):             57466.72270435512    


 Oscillator strength:

    velocity representation:              0.000000000000000    

    length representation:                0.000000000000000    

    mixed representation:                 0.000000000000000    


 Rotatory strength:

    velocity representation:              0.000000000000000    

    velocity rep. / 10^(-40)erg*cm^3:     0.000000000000000    

    length representation:                0.000000000000000    

    length rep. / 10^(-40)erg*cm^3:       0.000000000000000    


 Dominant contributions:

    occ. orbital  energy / eV   virt. orbital  energy / eV   |coeff.|^2*100
      16 a1        -11.09           3 a2          2.76           87.0
      13 b1        -13.52           4 b2          1.39            2.6
      13 b1        -13.52           5 b2          3.91            1.6
 

 S^2 expectation value:                     2.00000000


 Change of electron number:

             0.000000


 Electric transition dipole moment (velocity rep.):

    x        0.000000        Norm:                  0.000000
    y        0.000000
    z        0.000000        Norm / debye:          0.000000


 Electric transition dipole moment (length rep.):

    x        0.000000        Norm:                  0.000000
    y        0.000000
    z        0.000000        Norm / debye:          0.000000


 Magnetic transition dipole moment / i:

    x        0.000000        Norm:                  0.001334
    y        0.000000
    z        0.001334        Norm / Bohr mag.:      0.365541


 Electric quadrupole transition moment:

   xx        0.000000
   yy        0.000000        1/3*trace:             0.000000
   zz        0.000000
   xy        0.296819
   xz        0.000000        Anisotropy:            0.514105
   yz        0.000000




                         3 triplet a2 excitation


 Total energy:                           -415.1815111414315    

 Excitation energy:                      0.2987402950684876    

 Excitation energy / eV:                  8.129140521051315    

 Excitation energy / nm:                  152.5182689183405    

 Excitation energy / cm^(-1):             65565.91593536537    


 Oscillator strength:

    velocity representation:              0.000000000000000    

    length representation:                0.000000000000000    

    mixed representation:                 0.000000000000000    


 Rotatory strength:

    velocity representation:              0.000000000000000    

    velocity rep. / 10^(-40)erg*cm^3:     0.000000000000000    

    length representation:                0.000000000000000    

    length rep. / 10^(-40)erg*cm^3:       0.000000000000000    


 Dominant contributions:

    occ. orbital  energy / eV   virt. orbital  energy / eV   |coeff.|^2*100
       2 a2         -8.91          17 a1          4.24           79.0
       2 a2         -8.91          18 a1          4.55            3.6
       2 b2        -13.04          14 b1          4.87            3.3
       2 a2         -8.91          26 a1         11.86            2.2
       2 a2         -8.91          20 a1          5.67            2.1
 

 S^2 expectation value:                     2.00000000


 Change of electron number:

             0.000000


 Electric transition dipole moment (velocity rep.):

    x        0.000000        Norm:                  0.000000
    y        0.000000
    z        0.000000        Norm / debye:          0.000000


 Electric transition dipole moment (length rep.):

    x        0.000000        Norm:                  0.000000
    y        0.000000
    z        0.000000        Norm / debye:          0.000000


 Magnetic transition dipole moment / i:

    x        0.000000        Norm:                  0.000711
    y        0.000000
    z       -0.000711        Norm / Bohr mag.:      0.194841


 Electric quadrupole transition moment:

   xx        0.000000
   yy        0.000000        1/3*trace:             0.000000
   zz        0.000000
   xy       -0.881763
   xz        0.000000        Anisotropy:            1.527258
   yz        0.000000




                         4 triplet a2 excitation


 Total energy:                           -415.1710280280424    

 Excitation energy:                      0.3092234084575908    

 Excitation energy / eV:                  8.414400672577232    

 Excitation energy / nm:                  147.3476826585362    

 Excitation energy / cm^(-1):             67866.69337502499    


 Oscillator strength:

    velocity representation:              0.000000000000000    

    length representation:                0.000000000000000    

    mixed representation:                 0.000000000000000    


 Rotatory strength:

    velocity representation:              0.000000000000000    

    velocity rep. / 10^(-40)erg*cm^3:     0.000000000000000    

    length representation:                0.000000000000000    

    length rep. / 10^(-40)erg*cm^3:       0.000000000000000    


 Dominant contributions:

    occ. orbital  energy / eV   virt. orbital  energy / eV   |coeff.|^2*100
      12 b1        -14.27           4 b2          1.39           74.8
      11 b1        -16.30           4 b2          1.39            4.1
      11 b1        -16.30           5 b2          3.91            4.0
      14 a1        -16.56           4 a2          6.46            3.5
      10 b1        -16.94           4 b2          1.39            2.3
      10 b1        -16.94           5 b2          3.91            1.5
 

 S^2 expectation value:                     2.00000000


 Change of electron number:

             0.000000


 Electric transition dipole moment (velocity rep.):

    x        0.000000        Norm:                  0.000000
    y        0.000000
    z        0.000000        Norm / debye:          0.000000


 Electric transition dipole moment (length rep.):

    x        0.000000        Norm:                  0.000000
    y        0.000000
    z        0.000000        Norm / debye:          0.000000


 Magnetic transition dipole moment / i:

    x        0.000000        Norm:                  0.000597
    y        0.000000
    z       -0.000597        Norm / Bohr mag.:      0.163657


 Electric quadrupole transition moment:

   xx        0.000000
   yy        0.000000        1/3*trace:             0.000000
   zz        0.000000
   xy       -0.344100
   xz        0.000000        Anisotropy:            0.595998
   yz        0.000000




                         5 triplet a2 excitation


 Total energy:                           -415.1608293725383    

 Excitation energy:                      0.3194220639617100    

 Excitation energy / eV:                  8.691920327901171    

 Excitation energy / nm:                  142.6430976460718    

 Excitation energy / cm^(-1):             70105.03952542809    


 Oscillator strength:

    velocity representation:              0.000000000000000    

    length representation:                0.000000000000000    

    mixed representation:                 0.000000000000000    


 Rotatory strength:

    velocity representation:              0.000000000000000    

    velocity rep. / 10^(-40)erg*cm^3:     0.000000000000000    

    length representation:                0.000000000000000    

    length rep. / 10^(-40)erg*cm^3:       0.000000000000000    


 Dominant contributions:

    occ. orbital  energy / eV   virt. orbital  energy / eV   |coeff.|^2*100
       2 a2         -8.91          19 a1          5.19           65.7
       2 a2         -8.91          21 a1          7.07           14.3
       2 a2         -8.91          20 a1          5.67            8.8
       2 a2         -8.91          18 a1          4.55            4.2
 

 S^2 expectation value:                     2.00000000


 Change of electron number:

             0.000000


 Electric transition dipole moment (velocity rep.):

    x        0.000000        Norm:                  0.000000
    y        0.000000
    z        0.000000        Norm / debye:          0.000000


 Electric transition dipole moment (length rep.):

    x        0.000000        Norm:                  0.000000
    y        0.000000
    z        0.000000        Norm / debye:          0.000000


 Magnetic transition dipole moment / i:

    x        0.000000        Norm:                  0.003419
    y        0.000000
    z        0.003419        Norm / Bohr mag.:      0.936964


 Electric quadrupole transition moment:

   xx        0.000000
   yy        0.000000        1/3*trace:             0.000000
   zz        0.000000
   xy        2.102177
   xz        0.000000        Anisotropy:            3.641078
   yz        0.000000




                         6 triplet a2 excitation


 Total energy:                           -415.1290526293715    

 Excitation energy:                      0.3511988071285007    

 Excitation energy / eV:                  9.556609875205053    

 Excitation energy / nm:                  129.7366384371823    

 Excitation energy / cm^(-1):             77079.22849680822    


 Oscillator strength:

    velocity representation:              0.000000000000000    

    length representation:                0.000000000000000    

    mixed representation:                 0.000000000000000    


 Rotatory strength:

    velocity representation:              0.000000000000000    

    velocity rep. / 10^(-40)erg*cm^3:     0.000000000000000    

    length representation:                0.000000000000000    

    length rep. / 10^(-40)erg*cm^3:       0.000000000000000    


 Dominant contributions:

    occ. orbital  energy / eV   virt. orbital  energy / eV   |coeff.|^2*100
      12 b1        -14.27           5 b2          3.91           28.2
      11 b1        -16.30           4 b2          1.39           26.0
      10 b1        -16.94           4 b2          1.39            8.3
      15 a1        -14.26           3 a2          2.76            6.6
       2 a2         -8.91          18 a1          4.55            3.9
      14 a1        -16.56           3 a2          2.76            3.3
       2 a2         -8.91          20 a1          5.67            3.1
       2 a2         -8.91          21 a1          7.07            1.8
      16 a1        -11.09           4 a2          6.46            1.4
      12 b1        -14.27           4 b2          1.39            1.3
      12 a1        -19.16           4 a2          6.46            1.3
      13 a1        -17.63           4 a2          6.46            1.0
      11 a1        -19.94           4 a2          6.46            1.0
      12 b1        -14.27           9 b2         12.90            0.9
       3 b2         -9.09          15 b1          5.27            0.9
       8 b1        -24.00           4 b2          1.39            0.8
      14 a1        -16.56           8 a2         14.12            0.5
 

 S^2 expectation value:                     2.00000000


 Change of electron number:

             0.000000


 Electric transition dipole moment (velocity rep.):

    x        0.000000        Norm:                  0.000000
    y        0.000000
    z        0.000000        Norm / debye:          0.000000


 Electric transition dipole moment (length rep.):

    x        0.000000        Norm:                  0.000000
    y        0.000000
    z        0.000000        Norm / debye:          0.000000


 Magnetic transition dipole moment / i:

    x        0.000000        Norm:                  0.001072
    y        0.000000
    z       -0.001072        Norm / Bohr mag.:      0.293782


 Electric quadrupole transition moment:

   xx        0.000000
   yy        0.000000        1/3*trace:             0.000000
   zz        0.000000
   xy       -0.941090
   xz        0.000000        Anisotropy:            1.630015
   yz        0.000000




                         7 triplet a2 excitation


 Total energy:                           -415.1253259585255    

 Excitation energy:                      0.3549254779744858    

 Excitation energy / eV:                  9.658017791990343    

 Excitation energy / nm:                  128.3744207939768    

 Excitation energy / cm^(-1):             77897.13820447127    


 Oscillator strength:

    velocity representation:              0.000000000000000    

    length representation:                0.000000000000000    

    mixed representation:                 0.000000000000000    


 Rotatory strength:

    velocity representation:              0.000000000000000    

    velocity rep. / 10^(-40)erg*cm^3:     0.000000000000000    

    length representation:                0.000000000000000    

    length rep. / 10^(-40)erg*cm^3:       0.000000000000000    


 Dominant contributions:

    occ. orbital  energy / eV   virt. orbital  energy / eV   |coeff.|^2*100
       2 a2         -8.91          18 a1          4.55           26.5
       2 a2         -8.91          20 a1          5.67           13.0
       3 b2         -9.09          14 b1          4.87           11.6
      15 a1        -14.26           3 a2          2.76           10.4
       3 b2         -9.09          15 b1          5.27            6.5
       2 a2         -8.91          21 a1          7.07            6.3
       1 a2        -12.44          18 a1          4.55            3.5
       3 b2         -9.09          16 b1          5.55            2.1
       2 b2        -13.04          15 b1          5.27            1.9
       2 a2         -8.91          17 a1          4.24            1.7
      12 b1        -14.27           5 b2          3.91            1.5
      10 b1        -16.94           4 b2          1.39            1.5
      16 a1        -11.09           4 a2          6.46            1.4
      11 b1        -16.30           4 b2          1.39            1.2
       1 a2        -12.44          20 a1          5.67            1.0
      15 a1        -14.26           4 a2          6.46            0.9
 

 S^2 expectation value:                     2.00000000


 Change of electron number:

             0.000000


 Electric transition dipole moment (velocity rep.):

    x        0.000000        Norm:                  0.000000
    y        0.000000
    z        0.000000        Norm / debye:          0.000000


 Electric transition dipole moment (length rep.):

    x        0.000000        Norm:                  0.000000
    y        0.000000
    z        0.000000        Norm / debye:          0.000000


 Magnetic transition dipole moment / i:

    x        0.000000        Norm:                  0.002087
    y        0.000000
    z        0.002087        Norm / Bohr mag.:      0.571988


 Electric quadrupole transition moment:

   xx        0.000000
   yy        0.000000        1/3*trace:             0.000000
   zz        0.000000
   xy        1.564007
   xz        0.000000        Anisotropy:            2.708940
   yz        0.000000




                         8 triplet a2 excitation


 Total energy:                           -415.1237283716815    

 Excitation energy:                      0.3565230648184475    

 Excitation energy / eV:                  9.701490360517365    

 Excitation energy / nm:                  127.7991724973032    

 Excitation energy / cm^(-1):             78247.76798706094    


 Oscillator strength:

    velocity representation:              0.000000000000000    

    length representation:                0.000000000000000    

    mixed representation:                 0.000000000000000    


 Rotatory strength:

    velocity representation:              0.000000000000000    

    velocity rep. / 10^(-40)erg*cm^3:     0.000000000000000    

    length representation:                0.000000000000000    

    length rep. / 10^(-40)erg*cm^3:       0.000000000000000    


 Dominant contributions:

    occ. orbital  energy / eV   virt. orbital  energy / eV   |coeff.|^2*100
      15 a1        -14.26           3 a2          2.76           44.4
      11 b1        -16.30           4 b2          1.39            9.2
      15 a1        -14.26           4 a2          6.46            6.4
      12 b1        -14.27           5 b2          3.91            5.9
       2 a2         -8.91          18 a1          4.55            5.3
      16 a1        -11.09           4 a2          6.46            4.6
      13 b1        -13.52           4 b2          1.39            1.9
       3 b2         -9.09          14 b1          4.87            1.5
      10 b1        -16.94           5 b2          3.91            1.3
      14 a1        -16.56           4 a2          6.46            1.3
      10 b1        -16.94           4 b2          1.39            1.2
       3 b2         -9.09          15 b1          5.27            1.2
      15 a1        -14.26           8 a2         14.12            1.1
       1 a2        -12.44          18 a1          4.55            1.0
      11 b1        -16.30           5 b2          3.91            0.9
       2 a2         -8.91          21 a1          7.07            0.9
       8 b1        -24.00           4 b2          1.39            0.6
       9 b1        -20.25           5 b2          3.91            0.6
      14 a1        -16.56           5 a2          9.29            0.6
 

 S^2 expectation value:                     2.00000000


 Change of electron number:

             0.000000


 Electric transition dipole moment (velocity rep.):

    x        0.000000        Norm:                  0.000000
    y        0.000000
    z        0.000000        Norm / debye:          0.000000


 Electric transition dipole moment (length rep.):

    x        0.000000        Norm:                  0.000000
    y        0.000000
    z        0.000000        Norm / debye:          0.000000


 Magnetic transition dipole moment / i:

    x        0.000000        Norm:                  0.004420
    y        0.000000
    z       -0.004420        Norm / Bohr mag.:      1.211518


 Electric quadrupole transition moment:

   xx        0.000000
   yy        0.000000        1/3*trace:             0.000000
   zz        0.000000
   xy       -1.677921
   xz        0.000000        Anisotropy:            2.906245
   yz        0.000000




                         9 triplet a2 excitation


 Total energy:                           -415.1206828630037    

 Excitation energy:                      0.3595685734963484    

 Excitation energy / eV:                  9.784362903690898    

 Excitation energy / nm:                  126.7167267065477    

 Excitation energy / cm^(-1):             78916.17987943688    


 Oscillator strength:

    velocity representation:              0.000000000000000    

    length representation:                0.000000000000000    

    mixed representation:                 0.000000000000000    


 Rotatory strength:

    velocity representation:              0.000000000000000    

    velocity rep. / 10^(-40)erg*cm^3:     0.000000000000000    

    length representation:                0.000000000000000    

    length rep. / 10^(-40)erg*cm^3:       0.000000000000000    


 Dominant contributions:

    occ. orbital  energy / eV   virt. orbital  energy / eV   |coeff.|^2*100
       2 a2         -8.91          20 a1          5.67           52.5
       3 b2         -9.09          15 b1          5.27            9.8
       2 a2         -8.91          19 a1          5.19            9.6
       2 a2         -8.91          18 a1          4.55            4.8
       2 a2         -8.91          17 a1          4.24            3.5
       1 a2        -12.44          18 a1          4.55            2.8
       2 b2        -13.04          16 b1          5.55            2.4
       3 b2         -9.09          16 b1          5.55            2.1
      15 a1        -14.26           3 a2          2.76            1.6
      11 b1        -16.30           4 b2          1.39            0.9
       2 a2         -8.91          23 a1          8.53            0.7
 

 S^2 expectation value:                     2.00000000


 Change of electron number:

             0.000000


 Electric transition dipole moment (velocity rep.):

    x        0.000000        Norm:                  0.000000
    y        0.000000
    z        0.000000        Norm / debye:          0.000000


 Electric transition dipole moment (length rep.):

    x        0.000000        Norm:                  0.000000
    y        0.000000
    z        0.000000        Norm / debye:          0.000000


 Magnetic transition dipole moment / i:

    x        0.000000        Norm:                  0.000127
    y        0.000000
    z        0.000127        Norm / Bohr mag.:      0.034676


 Electric quadrupole transition moment:

   xx        0.000000
   yy        0.000000        1/3*trace:             0.000000
   zz        0.000000
   xy       -0.765314
   xz        0.000000        Anisotropy:            1.325562
   yz        0.000000




                        10 triplet a2 excitation


 Total energy:                           -415.1117131141607    

 Excitation energy:                      0.3685383223392888    

 Excitation energy / eV:                  10.02844229300155    

 Excitation energy / nm:                  123.6326045302090    

 Excitation energy / cm^(-1):             80884.81219421298    


 Oscillator strength:

    velocity representation:              0.000000000000000    

    length representation:                0.000000000000000    

    mixed representation:                 0.000000000000000    


 Rotatory strength:

    velocity representation:              0.000000000000000    

    velocity rep. / 10^(-40)erg*cm^3:     0.000000000000000    

    length representation:                0.000000000000000    

    length rep. / 10^(-40)erg*cm^3:       0.000000000000000    


 Dominant contributions:

    occ. orbital  energy / eV   virt. orbital  energy / eV   |coeff.|^2*100
       3 b2         -9.09          14 b1          4.87           76.0
       2 a2         -8.91          18 a1          4.55            9.3
       2 a2         -8.91          21 a1          7.07            2.5
       1 a2        -12.44          19 a1          5.19            1.1
       2 a2         -8.91          17 a1          4.24            1.0
 

 S^2 expectation value:                     2.00000000


 Change of electron number:

             0.000000


 Electric transition dipole moment (velocity rep.):

    x        0.000000        Norm:                  0.000000
    y        0.000000
    z        0.000000        Norm / debye:          0.000000


 Electric transition dipole moment (length rep.):

    x        0.000000        Norm:                  0.000000
    y        0.000000
    z        0.000000        Norm / debye:          0.000000


 Magnetic transition dipole moment / i:

    x        0.000000        Norm:                  0.002434
    y        0.000000
    z       -0.002434        Norm / Bohr mag.:      0.666957


 Electric quadrupole transition moment:

   xx        0.000000
   yy        0.000000        1/3*trace:             0.000000
   zz        0.000000
   xy       -1.098415
   xz        0.000000        Anisotropy:            1.902511
   yz        0.000000



 ==============================================================================

                              I R R E P   b1  

 ==============================================================================


 Excitation is electric dipole allowed

 Excitation is magnetic dipole allowed

 Excitation is electric quadrupole allowed




                         1 triplet b1 excitation


 Total energy:                           -415.3807021480902    

 Excitation energy:                      0.9954928840974819E-01

 Excitation energy / eV:                  2.708875125359247    

 Excitation energy / nm:                  457.6964174013954    

 Excitation energy / cm^(-1):             21848.54331017728    


 Oscillator strength:

    velocity representation:             0.4280521538084567    

    length representation:               0.1287790497498644    

    mixed representation:                0.2347853266514665    


 Rotatory strength:

    velocity representation:              0.000000000000000    

    velocity rep. / 10^(-40)erg*cm^3:     0.000000000000000    

    length representation:                0.000000000000000    

    length rep. / 10^(-40)erg*cm^3:       0.000000000000000    


 Dominant contributions:

    occ. orbital  energy / eV   virt. orbital  energy / eV   |coeff.|^2*100
       2 a2         -8.91           4 b2          1.39           61.2
       3 b2         -9.09           3 a2          2.76           13.8
       1 a2        -12.44           5 b2          3.91            6.1
       2 a2         -8.91           5 b2          3.91            5.0
       1 a2        -12.44           4 b2          1.39            4.3
 

 S^2 expectation value:                     2.00000000


 Change of electron number:

             0.000000


 Electric transition dipole moment (velocity rep.):

    x       -2.539656        Norm:                  2.539656
    y        0.000000
    z        0.000000        Norm / debye:          6.455210


 Electric transition dipole moment (length rep.):

    x       -1.392994        Norm:                  1.392994
    y        0.000000
    z        0.000000        Norm / debye:          3.540664


 Magnetic transition dipole moment / i:

    x        0.000000        Norm:                  0.000063
    y       -0.000063
    z        0.000000        Norm / Bohr mag.:      0.017172


 Electric quadrupole transition moment:

   xx        0.000000
   yy        0.000000        1/3*trace:             0.000000
   zz        0.000000
   xy        0.000000
   xz       -0.096273        Anisotropy:            0.166751
   yz        0.000000




                         2 triplet b1 excitation


 Total energy:                           -415.3241330468283    

 Excitation energy:                      0.1561183896716858    

 Excitation energy / eV:                  4.248199350778679    

 Excitation energy / nm:                  291.8512851421215    

 Excitation energy / cm^(-1):             34264.02591867193    


 Oscillator strength:

    velocity representation:             0.2478057214927919E-01

    length representation:               0.3354347426510181E-01

    mixed representation:                0.2883099866747326E-01


 Rotatory strength:

    velocity representation:              0.000000000000000    

    velocity rep. / 10^(-40)erg*cm^3:     0.000000000000000    

    length representation:                0.000000000000000    

    length rep. / 10^(-40)erg*cm^3:       0.000000000000000    


 Dominant contributions:

    occ. orbital  energy / eV   virt. orbital  energy / eV   |coeff.|^2*100
       1 a2        -12.44           4 b2          1.39           39.7
       2 a2         -8.91           5 b2          3.91           39.2
       3 b2         -9.09           3 a2          2.76            3.9
       2 b2        -13.04           3 a2          2.76            2.7
       1 b2        -15.99           4 a2          6.46            2.5
       3 b2         -9.09           4 a2          6.46            1.8
       2 a2         -8.91           4 b2          1.39            1.7
 

 S^2 expectation value:                     2.00000000


 Change of electron number:

             0.000000


 Electric transition dipole moment (velocity rep.):

    x       -0.487949        Norm:                  0.487949
    y        0.000000
    z        0.000000        Norm / debye:          1.240252


 Electric transition dipole moment (length rep.):

    x       -0.567705        Norm:                  0.567705
    y        0.000000
    z        0.000000        Norm / debye:          1.442973


 Magnetic transition dipole moment / i:

    x        0.000000        Norm:                  0.006392
    y       -0.006392
    z        0.000000        Norm / Bohr mag.:      1.751835


 Electric quadrupole transition moment:

   xx        0.000000
   yy        0.000000        1/3*trace:             0.000000
   zz        0.000000
   xy        0.000000
   xz       -3.222659        Anisotropy:            5.581809
   yz        0.000000




                         3 triplet b1 excitation


 Total energy:                           -415.3063238037015    

 Excitation energy:                      0.1739276327985093    

 Excitation energy / eV:                  4.732813720990523    

 Excitation energy / nm:                  261.9673017270578    

 Excitation energy / cm^(-1):             38172.70297697804    


 Oscillator strength:

    velocity representation:             0.9994516039832347    

    length representation:               0.8240398005914663    

    mixed representation:                0.9075174380953602    


 Rotatory strength:

    velocity representation:              0.000000000000000    

    velocity rep. / 10^(-40)erg*cm^3:     0.000000000000000    

    length representation:                0.000000000000000    

    length rep. / 10^(-40)erg*cm^3:       0.000000000000000    


 Dominant contributions:

    occ. orbital  energy / eV   virt. orbital  energy / eV   |coeff.|^2*100
       3 b2         -9.09           3 a2          2.76           72.7
       2 a2         -8.91           4 b2          1.39           15.9
       1 a2        -12.44           4 b2          1.39            4.0
 

 S^2 expectation value:                     2.00000000


 Change of electron number:

             0.000000


 Electric transition dipole moment (velocity rep.):

    x        2.935907        Norm:                  2.935907
    y        0.000000
    z        0.000000        Norm / debye:          7.462386


 Electric transition dipole moment (length rep.):

    x        2.665848        Norm:                  2.665848
    y        0.000000
    z        0.000000        Norm / debye:          6.775962


 Magnetic transition dipole moment / i:

    x        0.000000        Norm:                  0.002014
    y       -0.002014
    z        0.000000        Norm / Bohr mag.:      0.551955


 Electric quadrupole transition moment:

   xx        0.000000
   yy        0.000000        1/3*trace:             0.000000
   zz        0.000000
   xy        0.000000
   xz       -1.298578        Anisotropy:            2.249203
   yz        0.000000




                         4 triplet b1 excitation


 Total energy:                           -415.2087524196421    

 Excitation energy:                      0.2714990168578760    

 Excitation energy / eV:                  7.387867307485173    

 Excitation energy / nm:                  167.8214278169981    

 Excitation energy / cm^(-1):             59587.14646029542    


 Oscillator strength:

    velocity representation:             0.3501526135798143    

    length representation:               0.2959496280102503    

    mixed representation:                0.3219123106309589    


 Rotatory strength:

    velocity representation:              0.000000000000000    

    velocity rep. / 10^(-40)erg*cm^3:     0.000000000000000    

    length representation:                0.000000000000000    

    length rep. / 10^(-40)erg*cm^3:       0.000000000000000    


 Dominant contributions:

    occ. orbital  energy / eV   virt. orbital  energy / eV   |coeff.|^2*100
       2 a2         -8.91           5 b2          3.91           41.9
       2 b2        -13.04           3 a2          2.76           17.6
       1 a2        -12.44           4 b2          1.39           13.1
       2 a2         -8.91           4 b2          1.39            8.5
       3 b2         -9.09           4 a2          6.46            6.9
       1 a2        -12.44           5 b2          3.91            5.1
 

 S^2 expectation value:                     2.00000000


 Change of electron number:

             0.000000


 Electric transition dipole moment (velocity rep.):

    x       -1.390882        Norm:                  1.390882
    y        0.000000
    z        0.000000        Norm / debye:          3.535295


 Electric transition dipole moment (length rep.):

    x       -1.278705        Norm:                  1.278705
    y        0.000000
    z        0.000000        Norm / debye:          3.250169


 Magnetic transition dipole moment / i:

    x        0.000000        Norm:                  0.002350
    y       -0.002350
    z        0.000000        Norm / Bohr mag.:      0.643985


 Electric quadrupole transition moment:

   xx        0.000000
   yy        0.000000        1/3*trace:             0.000000
   zz        0.000000
   xy        0.000000
   xz       -5.443596        Anisotropy:            9.428584
   yz        0.000000




                         5 triplet b1 excitation


 Total energy:                           -415.1950123701731    

 Excitation energy:                      0.2852390663269101    

 Excitation energy / eV:                  7.761753236982457    

 Excitation energy / nm:                  159.7374204267666    

 Excitation energy / cm^(-1):             62602.73874331140    


 Oscillator strength:

    velocity representation:             0.1138229701287087    

    length representation:               0.8758847411917035E-01

    mixed representation:                0.9984778552018819E-01


 Rotatory strength:

    velocity representation:              0.000000000000000    

    velocity rep. / 10^(-40)erg*cm^3:     0.000000000000000    

    length representation:                0.000000000000000    

    length rep. / 10^(-40)erg*cm^3:       0.000000000000000    


 Dominant contributions:

    occ. orbital  energy / eV   virt. orbital  energy / eV   |coeff.|^2*100
       2 b2        -13.04           3 a2          2.76           30.9
       3 b2         -9.09           4 a2          6.46           30.3
       1 a2        -12.44           4 b2          1.39           19.2
       2 a2         -8.91           4 b2          1.39            6.0
       2 a2         -8.91           5 b2          3.91            3.8
 

 S^2 expectation value:                     2.00000000


 Change of electron number:

             0.000000


 Electric transition dipole moment (velocity rep.):

    x        0.773671        Norm:                  0.773671
    y        0.000000
    z        0.000000        Norm / debye:          1.966489


 Electric transition dipole moment (length rep.):

    x        0.678679        Norm:                  0.678679
    y        0.000000
    z        0.000000        Norm / debye:          1.725044


 Magnetic transition dipole moment / i:

    x        0.000000        Norm:                  0.002143
    y       -0.002143
    z        0.000000        Norm / Bohr mag.:      0.587237


 Electric quadrupole transition moment:

   xx        0.000000
   yy        0.000000        1/3*trace:             0.000000
   zz        0.000000
   xy        0.000000
   xz       -8.121722        Anisotropy:           14.067235
   yz        0.000000




                         6 triplet b1 excitation


 Total energy:                           -415.1313155725354    

 Excitation energy:                      0.3489358639646305    

 Excitation energy / eV:                  9.495032032262788    

 Excitation energy / nm:                  130.5780155192602    

 Excitation energy / cm^(-1):             76582.56988162272    


 Oscillator strength:

    velocity representation:             0.6983431150319341E-01

    length representation:               0.7819653944739301E-01

    mixed representation:                0.7389723603925247E-01


 Rotatory strength:

    velocity representation:              0.000000000000000    

    velocity rep. / 10^(-40)erg*cm^3:     0.000000000000000    

    length representation:                0.000000000000000    

    length rep. / 10^(-40)erg*cm^3:       0.000000000000000    


 Dominant contributions:

    occ. orbital  energy / eV   virt. orbital  energy / eV   |coeff.|^2*100
       1 b2        -15.99           3 a2          2.76           35.4
       3 b2         -9.09           5 a2          9.29           17.5
       2 b2        -13.04           4 a2          6.46           10.2
       1 a2        -12.44           5 b2          3.91            9.5
       3 b2         -9.09           4 a2          6.46            5.1
       3 b2         -9.09           7 a2         11.71            3.9
       2 b2        -13.04           3 a2          2.76            2.7
[...]
      16 a1        -11.09           5 b2          3.91            1.2
 

 S^2 expectation value:                     2.00000000


 Change of electron number:

             0.000000


 Electric transition dipole moment (velocity rep.):

    x        0.000000        Norm:                  0.281057
    y        0.281057
    z        0.000000        Norm / debye:          0.714380


 Electric transition dipole moment (length rep.):

    x        0.000000        Norm:                  0.336349
    y        0.336349
    z        0.000000        Norm / debye:          0.854921


 Magnetic transition dipole moment / i:

    x       -0.001818        Norm:                  0.001818
    y        0.000000
    z        0.000000        Norm / Bohr mag.:      0.498172


 Electric quadrupole transition moment:

   xx        0.000000
   yy        0.000000        1/3*trace:             0.000000
   zz        0.000000
   xy        0.000000
   xz        0.000000        Anisotropy:            2.675193
   yz        1.544523




                         4 triplet b2 excitation


 Total energy:                           -415.1669039771331    

 Excitation energy:                      0.3133474593669325    

 Excitation energy / eV:                  8.526621855696579    

 Excitation energy / nm:                  145.4083998384839    

 Excitation energy / cm^(-1):             68771.81792534077    


 Oscillator strength:

    velocity representation:             0.2408010616214030E-03

    length representation:               0.1456102259788518E-02

    mixed representation:                0.5921410051553592E-03


 Rotatory strength:

    velocity representation:              0.000000000000000    

    velocity rep. / 10^(-40)erg*cm^3:     0.000000000000000    

    length representation:                0.000000000000000    

    length rep. / 10^(-40)erg*cm^3:       0.000000000000000    


 Dominant contributions:

    occ. orbital  energy / eV   virt. orbital  energy / eV   |coeff.|^2*100
       3 b2         -9.09          19 a1          5.19           63.8
       3 b2         -9.09          20 a1          5.67           13.5
       3 b2         -9.09          18 a1          4.55            9.0
       3 b2         -9.09          17 a1          4.24            4.3
 

 S^2 expectation value:                     2.00000000


 Change of electron number:

             0.000000


 Electric transition dipole moment (velocity rep.):

    x        0.000000        Norm:                  0.033952
    y        0.033952
    z        0.000000        Norm / debye:          0.086297


 Electric transition dipole moment (length rep.):

    x        0.000000        Norm:                  0.083489
    y        0.083489
    z        0.000000        Norm / debye:          0.212209


 Magnetic transition dipole moment / i:

    x        0.002832        Norm:                  0.002832
    y        0.000000
    z        0.000000        Norm / Bohr mag.:      0.776307


 Electric quadrupole transition moment:

   xx        0.000000
   yy        0.000000        1/3*trace:             0.000000
   zz        0.000000
   xy        0.000000
   xz        0.000000        Anisotropy:            2.121791
   yz       -1.225016




                         5 triplet b2 excitation


 Total energy:                           -415.1468746983421    

 Excitation energy:                      0.3333767381578983    

 Excitation energy / eV:                  9.071646495876925    

 Excitation energy / nm:                  136.6722612734296    

 Excitation energy / cm^(-1):             73167.73649117532    


 Oscillator strength:

    velocity representation:             0.3342678195938366E-03

    length representation:               0.3285990160788726E-03

    mixed representation:                0.3314212977848056E-03


 Rotatory strength:

    velocity representation:              0.000000000000000    

    velocity rep. / 10^(-40)erg*cm^3:     0.000000000000000    

    length representation:                0.000000000000000    

    length rep. / 10^(-40)erg*cm^3:       0.000000000000000    


 Dominant contributions:

    occ. orbital  energy / eV   virt. orbital  energy / eV   |coeff.|^2*100
       2 a2         -8.91          14 b1          4.87           37.6
       3 b2         -9.09          17 a1          4.24           30.6
       3 b2         -9.09          18 a1          4.55           11.0
       3 b2         -9.09          19 a1          5.19            6.3
       2 a2         -8.91          16 b1          5.55            2.7
       2 b2        -13.04          18 a1          4.55            2.6
 

 S^2 expectation value:                     2.00000000


 Change of electron number:

             0.000000


 Electric transition dipole moment (velocity rep.):

    x        0.000000        Norm:                  0.038782
    y        0.038782
    z        0.000000        Norm / debye:          0.098574


 Electric transition dipole moment (length rep.):

    x        0.000000        Norm:                  0.038451
    y        0.038451
    z        0.000000        Norm / debye:          0.097734


 Magnetic transition dipole moment / i:

    x       -0.001806        Norm:                  0.001806
    y        0.000000
    z        0.000000        Norm / Bohr mag.:      0.495064


 Electric quadrupole transition moment:

   xx        0.000000
   yy        0.000000        1/3*trace:             0.000000
   zz        0.000000
   xy        0.000000
   xz        0.000000        Anisotropy:            2.609832
   yz        1.506787




                         6 triplet b2 excitation


 Total energy:                           -415.1397516734912    

 Excitation energy:                      0.3404997630088169    

 Excitation energy / eV:                  9.265473947024027    

 Excitation energy / nm:                  133.8131699634110    

 Excitation energy / cm^(-1):             74731.05973979761    


 Oscillator strength:

    velocity representation:             0.6308928956920232E-02

    length representation:               0.9604505005766767E-02

    mixed representation:                0.7784223772976165E-02


 Rotatory strength:

    velocity representation:              0.000000000000000    

    velocity rep. / 10^(-40)erg*cm^3:     0.000000000000000    

    length representation:                0.000000000000000    

    length rep. / 10^(-40)erg*cm^3:       0.000000000000000    


 Dominant contributions:

    occ. orbital  energy / eV   virt. orbital  energy / eV   |coeff.|^2*100
       3 b2         -9.09          18 a1          4.55           56.4
       2 a2         -8.91          14 b1          4.87           13.4
       2 a2         -8.91          16 b1          5.55            4.4
       3 b2         -9.09          19 a1          5.19            4.1
       2 b2        -13.04          18 a1          4.55            2.5
       2 a2         -8.91          15 b1          5.27            2.3
       3 b2         -9.09          17 a1          4.24            2.0
       3 b2         -9.09          20 a1          5.67            1.2
       2 b2        -13.04          17 a1          4.24            1.2
      15 a1        -14.26           4 b2          1.39            1.1
       2 b2        -13.04          20 a1          5.67            1.1
       1 b2        -15.99          18 a1          4.55            1.0
 

 S^2 expectation value:                     2.00000000


 Change of electron number:

             0.000000


 Electric transition dipole moment (velocity rep.):

    x        0.000000        Norm:                  0.166711
    y       -0.166711
    z        0.000000        Norm / debye:          0.423741


 Electric transition dipole moment (length rep.):

    x        0.000000        Norm:                  0.205695
    y       -0.205695
    z        0.000000        Norm / debye:          0.522830


 Magnetic transition dipole moment / i:

    x       -0.000082        Norm:                  0.000082
    y        0.000000
    z        0.000000        Norm / Bohr mag.:      0.022549


 Electric quadrupole transition moment:

   xx        0.000000
   yy        0.000000        1/3*trace:             0.000000
   zz        0.000000
   xy        0.000000
   xz        0.000000        Anisotropy:            1.681205
   yz        0.970644




                         7 triplet b2 excitation


 Total energy:                           -415.1344441199640    

 Excitation energy:                      0.3458073165360483    

 Excitation energy / eV:                  9.409899888747004    

 Excitation energy / nm:                  131.7593656386686    

 Excitation energy / cm^(-1):             75895.93309010722    


 Oscillator strength:

    velocity representation:             0.6007742816421868E-02

    length representation:               0.4033579183382268E-02

    mixed representation:                0.4922672684978518E-02


 Rotatory strength:

    velocity representation:              0.000000000000000    

    velocity rep. / 10^(-40)erg*cm^3:     0.000000000000000    

    length representation:                0.000000000000000    

    length rep. / 10^(-40)erg*cm^3:       0.000000000000000    


 Dominant contributions:

    occ. orbital  energy / eV   virt. orbital  energy / eV   |coeff.|^2*100
      15 a1        -14.26           4 b2          1.39           25.2
      16 a1        -11.09           5 b2          3.91           22.9
      14 a1        -16.56           4 b2          1.39           10.2
      13 b1        -13.52           3 a2          2.76            6.3
      15 a1        -14.26           5 b2          3.91            5.9
      12 b1        -14.27           3 a2          2.76            5.1
      14 a1        -16.56           5 b2          3.91            4.0
      12 b1        -14.27           4 a2          6.46            2.6
      16 a1        -11.09           4 b2          1.39            1.9
       3 b2         -9.09          18 a1          4.55            1.5
      11 a1        -19.94           5 b2          3.91            1.4
       2 a2         -8.91          16 b1          5.55            1.2
       2 a2         -8.91          14 b1          4.87            1.0
      13 a1        -17.63           4 b2          1.39            0.8
 

 S^2 expectation value:                     2.00000000


 Change of electron number:

             0.000000


 Electric transition dipole moment (velocity rep.):

    x        0.000000        Norm:                  0.161430
    y       -0.161430
    z        0.000000        Norm / debye:          0.410317


 Electric transition dipole moment (length rep.):

    x        0.000000        Norm:                  0.132274
    y       -0.132274
    z        0.000000        Norm / debye:          0.336209


 Magnetic transition dipole moment / i:

    x       -0.001986        Norm:                  0.001986
    y        0.000000
    z        0.000000        Norm / Bohr mag.:      0.544261


 Electric quadrupole transition moment:

   xx        0.000000
   yy        0.000000        1/3*trace:             0.000000
   zz        0.000000
   xy        0.000000
   xz        0.000000        Anisotropy:            0.747734
   yz        0.431704




                         8 triplet b2 excitation


 Total energy:                           -415.1250061363190    

 Excitation energy:                      0.3552453001809549    

 Excitation energy / eV:                  9.666720600754537    

 Excitation energy / nm:                  128.2588471593880    

 Excitation energy / cm^(-1):             77967.33106512572    


 Oscillator strength:

    velocity representation:             0.4916958262279425E-02

    length representation:               0.3007177668490923E-02

    mixed representation:                0.3845278544296709E-02


 Rotatory strength:

    velocity representation:              0.000000000000000    

    velocity rep. / 10^(-40)erg*cm^3:     0.000000000000000    

    length representation:                0.000000000000000    

    length rep. / 10^(-40)erg*cm^3:       0.000000000000000    


 Dominant contributions:

    occ. orbital  energy / eV   virt. orbital  energy / eV   |coeff.|^2*100
      12 b1        -14.27           3 a2          2.76           44.5
      14 a1        -16.56           4 b2          1.39           10.6
      12 b1        -14.27           4 a2          6.46            8.9
      15 a1        -14.26           4 b2          1.39            7.9
      16 a1        -11.09           5 b2          3.91            7.7
      13 b1        -13.52           3 a2          2.76            4.8
      13 a1        -17.63           5 b2          3.91            2.0
      13 a1        -17.63           4 b2          1.39            1.7
      11 b1        -16.30           4 a2          6.46            1.5
      11 b1        -16.30           3 a2          2.76            1.5
 

 S^2 expectation value:                     2.00000000


 Change of electron number:

             0.000000


 Electric transition dipole moment (velocity rep.):

    x        0.000000        Norm:                  0.144089
    y        0.144089
    z        0.000000        Norm / debye:          0.366240


 Electric transition dipole moment (length rep.):

    x        0.000000        Norm:                  0.112684
    y        0.112684
    z        0.000000        Norm / debye:          0.286415


 Magnetic transition dipole moment / i:

    x       -0.004697        Norm:                  0.004697
    y        0.000000
    z        0.000000        Norm / Bohr mag.:      1.287209


 Electric quadrupole transition moment:

   xx        0.000000
   yy        0.000000        1/3*trace:             0.000000
   zz        0.000000
   xy        0.000000
   xz        0.000000        Anisotropy:            2.733645
   yz        1.578270




                         9 triplet b2 excitation


 Total energy:                           -415.1173506781103    

 Excitation energy:                      0.3629007583897497    

 Excitation energy / eV:                  9.875036306936929    

 Excitation energy / nm:                  125.5532032012611    

 Excitation energy / cm^(-1):             79647.50992834024    


 Oscillator strength:

    velocity representation:             0.6016043455577147E-02

    length representation:               0.4950476901690793E-02

    mixed representation:                0.5457314739540200E-02


 Rotatory strength:

    velocity representation:              0.000000000000000    

    velocity rep. / 10^(-40)erg*cm^3:     0.000000000000000    

    length representation:                0.000000000000000    

    length rep. / 10^(-40)erg*cm^3:       0.000000000000000    


 Dominant contributions:

    occ. orbital  energy / eV   virt. orbital  energy / eV   |coeff.|^2*100
      13 b1        -13.52           3 a2          2.76           35.8
      14 a1        -16.56           4 b2          1.39           14.8
      12 a1        -19.16           4 b2          1.39            5.8
      12 b1        -14.27           3 a2          2.76            5.8
      15 a1        -14.26           4 b2          1.39            5.4
      11 b1        -16.30           3 a2          2.76            3.0
      11 b1        -16.30           4 a2          6.46            2.7
      14 a1        -16.56           5 b2          3.91            2.6
      13 b1        -13.52           4 a2          6.46            2.4
      16 a1        -11.09           4 b2          1.39            2.4
      16 a1        -11.09           5 b2          3.91            2.3
      10 b1        -16.94           3 a2          2.76            2.0
       2 a2         -8.91          16 b1          5.55            1.9
      12 b1        -14.27           4 a2          6.46            1.8
      11 a1        -19.94           4 b2          1.39            1.4
 

 S^2 expectation value:                     2.00000000


 Change of electron number:

             0.000000


 Electric transition dipole moment (velocity rep.):

    x        0.000000        Norm:                  0.157691
    y       -0.157691
    z        0.000000        Norm / debye:          0.400814


 Electric transition dipole moment (length rep.):

    x        0.000000        Norm:                  0.143046
    y       -0.143046
    z        0.000000        Norm / debye:          0.363589


 Magnetic transition dipole moment / i:

    x       -0.003180        Norm:                  0.003180
    y        0.000000
    z        0.000000        Norm / Bohr mag.:      0.871685


 Electric quadrupole transition moment:

   xx        0.000000
   yy        0.000000        1/3*trace:             0.000000
   zz        0.000000
   xy        0.000000
   xz        0.000000        Anisotropy:            0.491683
   yz        0.283873




                        10 triplet b2 excitation


 Total energy:                           -415.1157546585727    

 Excitation energy:                      0.3644967779273522    

 Excitation energy / eV:                  9.918466226869693    

 Excitation energy / nm:                  125.0034442528905    

 Excitation energy / cm^(-1):             79997.79572694555    


 Oscillator strength:

    velocity representation:             0.7110715925585350E-02

    length representation:               0.5841273413922866E-02

    mixed representation:                0.6444814651336346E-02


 Rotatory strength:

    velocity representation:              0.000000000000000    

    velocity rep. / 10^(-40)erg*cm^3:     0.000000000000000    

    length representation:                0.000000000000000    

    length rep. / 10^(-40)erg*cm^3:       0.000000000000000    


 Dominant contributions:

    occ. orbital  energy / eV   virt. orbital  energy / eV   |coeff.|^2*100
      13 b1        -13.52           3 a2          2.76           35.4
      12 b1        -14.27           3 a2          2.76           20.5
      14 a1        -16.56           4 b2          1.39           16.8
      11 b1        -16.30           3 a2          2.76            3.7
      12 b1        -14.27           4 a2          6.46            2.2
       2 a2         -8.91          16 b1          5.55            2.1
      10 b1        -16.94           4 a2          6.46            2.0
      11 b1        -16.30           4 a2          6.46            1.9
      11 a1        -19.94           4 b2          1.39            1.8
      12 a1        -19.16           5 b2          3.91            1.4
      10 b1        -16.94           3 a2          2.76            1.1
      12 a1        -19.16           4 b2          1.39            1.1
 

 S^2 expectation value:                     2.00000000


 Change of electron number:

             0.000000


 Electric transition dipole moment (velocity rep.):

    x        0.000000        Norm:                  0.171063
    y       -0.171063
    z        0.000000        Norm / debye:          0.434801


 Electric transition dipole moment (length rep.):

    x        0.000000        Norm:                  0.155043
    y       -0.155043
    z        0.000000        Norm / debye:          0.394083


 Magnetic transition dipole moment / i:

    x       -0.006088        Norm:                  0.006088
    y        0.000000
    z        0.000000        Norm / Bohr mag.:      1.668417


 Electric quadrupole transition moment:

   xx        0.000000
   yy        0.000000        1/3*trace:             0.000000
   zz        0.000000
   xy        0.000000
   xz        0.000000        Anisotropy:            4.497645
   yz        2.596717


    ------------------------------------------------------------------------
         total  cpu-time :  1 hours  0 minutes and 27 seconds
         total wall-time :  1 hours  0 minutes and 28 seconds
    ------------------------------------------------------------------------


   ****  escf : all done  ****


    2024-02-12 16:32:21.664 

