       4
 i =       26, E =       -16.2342000309
 Se         5.1618277595        4.8438671571        3.6417568905
  C         3.9543992164        3.6093817642        3.9948679600
  H         3.3491600024        3.1607797300        3.2038237080
  H         3.7785516115        3.2585462828        5.0148762793
