
                                 *****************
                                 * O   R   C   A *
                                 *****************

                                            #,                                       
                                            ###                                      
                                            ####                                     
                                            #####                                    
                                            ######                                   
                                           ########,                                 
                                     ,,################,,,,,                         
                               ,,#################################,,                 
                          ,,##########################################,,             
                       ,#########################################, ''#####,          
                    ,#############################################,,   '####,        
                  ,##################################################,,,,####,       
                ,###########''''           ''''###############################       
              ,#####''   ,,,,##########,,,,          '''####'''          '####       
            ,##' ,,,,###########################,,,                        '##       
           ' ,,###''''                  '''############,,,                           
         ,,##''                                '''############,,,,        ,,,,,,###''
      ,#''                                            '''#######################'''  
     '                                                          ''''####''''         
             ,#######,   #######,   ,#######,      ##                                
            ,#'     '#,  ##    ##  ,#'     '#,    #''#        ######   ,####,        
            ##       ##  ##   ,#'  ##            #'  '#       #        #'  '#        
            ##       ##  #######   ##           ,######,      #####,   #    #        
            '#,     ,#'  ##    ##  '#,     ,#' ,#      #,         ##   #,  ,#        
             '#######'   ##     ##  '#######'  #'      '#     #####' # '####'        



                  #######################################################
                  #                        -***-                        #
                  #          Department of theory and spectroscopy      #
                  #    Directorship and core code : Frank Neese         #
                  #        Max Planck Institute fuer Kohlenforschung    #
                  #                Kaiser Wilhelm Platz 1               #
                  #                 D-45470 Muelheim/Ruhr               #
                  #                      Germany                        #
                  #                                                     #
                  #                  All rights reserved                #
                  #                        -***-                        #
                  #######################################################


                         Program Version 5.0.4 -  RELEASE  -


 With contributions from (in alphabetic order):
   Daniel Aravena         : Magnetic Suceptibility
   Michael Atanasov       : Ab Initio Ligand Field Theory (pilot matlab implementation)
   Alexander A. Auer      : GIAO ZORA, VPT2 properties, NMR spectrum
   Ute Becker             : Parallelization
   Giovanni Bistoni       : ED, misc. LED, open-shell LED, HFLD
   Martin Brehm           : Molecular dynamics
   Dmytro Bykov           : SCF Hessian
   Vijay G. Chilkuri      : MRCI spin determinant printing, contributions to CSF-ICE
   Dipayan Datta          : RHF DLPNO-CCSD density
   Achintya Kumar Dutta   : EOM-CC, STEOM-CC
   Dmitry Ganyushin       : Spin-Orbit,Spin-Spin,Magnetic field MRCI
   Miquel Garcia          : C-PCM and meta-GGA Hessian, CC/C-PCM, Gaussian charge scheme
   Yang Guo               : DLPNO-NEVPT2, F12-NEVPT2, CIM, IAO-localization
   Andreas Hansen         : Spin unrestricted coupled pair/coupled cluster methods
   Benjamin Helmich-Paris : MC-RPA, TRAH-SCF, COSX integrals
   Lee Huntington         : MR-EOM, pCC
   Robert Izsak           : Overlap fitted RIJCOSX, COSX-SCS-MP3, EOM
   Marcus Kettner         : VPT2
   Christian Kollmar      : KDIIS, OOCD, Brueckner-CCSD(T), CCSD density, CASPT2, CASPT2-K
   Simone Kossmann        : Meta GGA functionals, TD-DFT gradient, OOMP2, MP2 Hessian
   Martin Krupicka        : Initial AUTO-CI
   Lucas Lang             : DCDCAS
   Marvin Lechner         : AUTO-CI (C++ implementation), FIC-MRCC
   Dagmar Lenk            : GEPOL surface, SMD
   Dimitrios Liakos       : Extrapolation schemes; Compound Job, initial MDCI parallelization
   Dimitrios Manganas     : Further ROCIS development; embedding schemes
   Dimitrios Pantazis     : SARC Basis sets
   Anastasios Papadopoulos: AUTO-CI, single reference methods and gradients
   Taras Petrenko         : DFT Hessian,TD-DFT gradient, ASA, ECA, R-Raman, ABS, FL, XAS/XES, NRVS
   Peter Pinski           : DLPNO-MP2, DLPNO-MP2 Gradient
   Christoph Reimann      : Effective Core Potentials
   Marius Retegan         : Local ZFS, SOC
   Christoph Riplinger    : Optimizer, TS searches, QM/MM, DLPNO-CCSD(T), (RO)-DLPNO pert. Triples
   Tobias Risthaus        : Range-separated hybrids, TD-DFT gradient, RPA, STAB
   Michael Roemelt        : Original ROCIS implementation
   Masaaki Saitow         : Open-shell DLPNO-CCSD energy and density
   Barbara Sandhoefer     : DKH picture change effects
   Avijit Sen             : IP-ROCIS
   Kantharuban Sivalingam : CASSCF convergence, NEVPT2, FIC-MRCI
   Bernardo de Souza      : ESD, SOC TD-DFT
   Georgi Stoychev        : AutoAux, RI-MP2 NMR, DLPNO-MP2 response
   Willem Van den Heuvel  : Paramagnetic NMR
   Boris Wezisla          : Elementary symmetry handling
   Frank Wennmohs         : Technical directorship


 We gratefully acknowledge several colleagues who have allowed us to
 interface, adapt or use parts of their codes:
   Stefan Grimme, W. Hujo, H. Kruse, P. Pracht,  : VdW corrections, initial TS optimization,
                  C. Bannwarth, S. Ehlert          DFT functionals, gCP, sTDA/sTD-DF
   Ed Valeev, F. Pavosevic, A. Kumar             : LibInt (2-el integral package), F12 methods
   Garnet Chan, S. Sharma, J. Yang, R. Olivares  : DMRG
   Ulf Ekstrom                                   : XCFun DFT Library
   Mihaly Kallay                                 : mrcc  (arbitrary order and MRCC methods)
   Jiri Pittner, Ondrej Demel                    : Mk-CCSD
   Frank Weinhold                                : gennbo (NPA and NBO analysis)
   Christopher J. Cramer and Donald G. Truhlar   : smd solvation model
   Lars Goerigk                                  : TD-DFT with DH, B97 family of functionals
   V. Asgeirsson, H. Jonsson                     : NEB implementation
   FAccTs GmbH                                   : IRC, NEB, NEB-TS, DLPNO-Multilevel, CI-OPT
                                                   MM, QMMM, 2- and 3-layer-ONIOM, Crystal-QMMM,
                                                   LR-CPCM, SF, NACMEs, symmetry and pop. for TD-DFT,
                                                   nearIR, NL-DFT gradient (VV10), updates on ESD,
                                                   ML-optimized integration grids
   S Lehtola, MJT Oliveira, MAL Marques          : LibXC Library
   Liviu Ungur et al                             : ANISO software


 Your calculation uses the libint2 library for the computation of 2-el integrals
 For citations please refer to: http://libint.valeyev.net

 Your ORCA version has been built with support for libXC version: 5.1.0
 For citations please refer to: https://tddft.org/programs/libxc/

 This ORCA versions uses:
   CBLAS   interface :  Fast vector & matrix operations
   LAPACKE interface :  Fast linear algebra routines
   SCALAPACK package :  Parallel linear algebra routines
   Shared memory     :  Shared parallel matrices
   BLAS/LAPACK       :  OpenBLAS 0.3.15  USE64BITINT DYNAMIC_ARCH NO_AFFINITY SkylakeX SINGLE_THREADED
        Core in use  :  SkylakeX
   Copyright (c) 2011-2014, The OpenBLAS Project


Reading of a custom orbital basis requested
Basis file: ../../../basis_orca
READING GTO-BASIS: HYDROGEN
READING GTO-BASIS: CARBON
READING GTO-BASIS: OXYGEN
READING GTO-BASIS: FLUORINE
READING GTO-BASIS: SULFUR
READING GTO-BASIS: CHLORINE
READING GTO-BASIS: SELENIUM
READING GTO-BASIS: BROMINE
READING GTO-BASIS: TELLURIUM
READING GTO-BASIS: IODINE
Basis read successfully!

================================================================================

----- Orbital basis set information -----
Basis read from file: ../../../basis_orca

================================================================================
                                        WARNINGS
                       Please study these warnings very carefully!
================================================================================

INFO   : Checking CIS options ...

WARNING: (CIS/TDDFT): Spin-orbit needs TRIPLETS set to TRUE
  ===> : ajusting flags

WARNING: CIS/ROCIS methods need fully converged wavefunctions
  ===> : Setting SCFConvForced true
         You can overwrite this default with %scf ConvForced false 


INFO   : the flag for use of the SHARK integral package has been found!

================================================================================
                                       INPUT FILE
================================================================================
NAME = orca.inp
|  1> !PBE0 nososcf NoRI
|  2> %SCF Guess HCore
|  3>      DIISMaxIt -1
|  4> end
|  5> %TDDFT NROOTS 10
|  6>        DOSOC TRUE
|  7> end
|  8> %basis
|  9>         GTOName "../../../basis_orca"
| 10> end
| 11> * xyz 0 1 
| 12> Se         5.1618277595        4.8438671571        3.6417568905
| 13>   C         3.9543992164        3.6093817642        3.9948679600
| 14>   H         3.3491600024        3.1607797300        3.2038237080
| 15>   H         3.7785516115        3.2585462828        5.0148762793
| 16> *
| 17> 
| 18>                          ****END OF INPUT****
================================================================================

                       ****************************
                       * Single Point Calculation *
                       ****************************

---------------------------------
CARTESIAN COORDINATES (ANGSTROEM)
---------------------------------
  Se     5.161828    4.843867    3.641757
  C      3.954399    3.609382    3.994868
  H      3.349160    3.160780    3.203824
  H      3.778552    3.258546    5.014876

----------------------------
CARTESIAN COORDINATES (A.U.)
----------------------------
  NO LB      ZA    FRAG     MASS         X           Y           Z
   0 Se   34.0000    0    78.960    9.754441    9.153582    6.881923
   1 C     6.0000    0    12.011    7.472732    6.820743    7.549206
   2 H     1.0000    0     1.008    6.328995    5.973008    6.054349
   3 H     1.0000    0     1.008    7.140428    6.157760    9.476743

--------------------------------
INTERNAL COORDINATES (ANGSTROEM)
--------------------------------
 Se     0   0   0     0.000000000000     0.00000000     0.00000000
 C      1   0   0     1.762533772550     0.00000000     0.00000000
 H      2   1   0     1.092386973501   121.47371507     0.00000000
 H      2   1   3     1.092897473050   121.46959521   179.96704081

---------------------------
INTERNAL COORDINATES (A.U.)
---------------------------
 Se     0   0   0     0.000000000000     0.00000000     0.00000000
 C      1   0   0     3.330706131907     0.00000000     0.00000000
 H      2   1   0     2.064312212179   121.47371507     0.00000000
 H      2   1   3     2.065276916519   121.46959521   179.96704081

---------------------
BASIS SET INFORMATION
---------------------
There are 3 groups of distinct atoms

 Group   1 Type Se  : 16s13p6d2f1g contracted to 9s6p3d2f1g pattern {711121111/712111/411/11/1}
 Group   2 Type C   : 10s6p2d1f contracted to 5s3p2d1f pattern {52111/411/11/1}
 Group   3 Type H   : 5s2p1d contracted to 3s2p1d pattern {311/11/1}

Atom   0Se   basis set group =>   1
Atom   1C    basis set group =>   2
Atom   2H    basis set group =>   3
Atom   3H    basis set group =>   3
------------------------------------------------------------------------------
                           ORCA GTO INTEGRAL CALCULATION
------------------------------------------------------------------------------
------------------------------------------------------------------------------
                   ___                                                        
                  /   \      - P O W E R E D   B Y -                         
                 /     \                                                     
                 |  |  |   _    _      __       _____    __    __             
                 |  |  |  | |  | |    /  \     |  _  \  |  |  /  |          
                  \  \/   | |  | |   /    \    | | | |  |  | /  /          
                 / \  \   | |__| |  /  /\  \   | |_| |  |  |/  /          
                |  |  |   |  __  | /  /__\  \  |    /   |      \           
                |  |  |   | |  | | |   __   |  |    \   |  |\   \          
                \     /   | |  | | |  |  |  |  | |\  \  |  | \   \       
                 \___/    |_|  |_| |__|  |__|  |_| \__\ |__|  \__/        
                                                                              
                      - O R C A' S   B I G   F R I E N D -                    
                                      &                                       
                       - I N T E G R A L  F E E D E R -                       
                                                                              
 v1 FN, 2020, v2 2021                                                         
------------------------------------------------------------------------------


Reading SHARK input file orca.SHARKINP.tmp ... ok
----------------------
SHARK INTEGRAL PACKAGE
----------------------

Number of atoms                             ...      4
Number of basis functions                   ...    124
Number of shells                            ...     44
Maximum angular momentum                    ...      4
Integral batch strategy                     ... SHARK/LIBINT Hybrid
RI-J (if used) integral strategy            ... SPLIT-RIJ (Revised 2003 algorithm where possible)
Printlevel                                  ...      1
Contraction scheme used                     ... SEGMENTED contraction
Coulomb Range Separation                    ... NOT USED
Exchange Range Separation                   ... NOT USED
Finite Nucleus Model                        ... NOT USED
Auxiliary Coulomb fitting basis             ... NOT available
Auxiliary J/K fitting basis                 ... NOT available
Auxiliary Correlation fitting basis         ... NOT available
Auxiliary 'external' fitting basis          ... NOT available
Integral threshold                          ...     1.000000e-10
Primitive cut-off                           ...     1.000000e-11
Primitive pair pre-selection threshold      ...     1.000000e-11

Calculating pre-screening integrals         ... done (  0.1 sec) Dimension = 44
Organizing shell pair data                  ... done (  0.0 sec)
Shell pair information
Total number of shell pairs                 ...       990
Shell pairs after pre-screening             ...       962
Total number of primitive shell pairs       ...      2774
Primitive shell pairs kept                  ...      2346
          la=0 lb=0:    191 shell pairs
          la=1 lb=0:    254 shell pairs
          la=1 lb=1:     91 shell pairs
          la=2 lb=0:    139 shell pairs
          la=2 lb=1:     91 shell pairs
          la=2 lb=2:     28 shell pairs
          la=3 lb=0:     59 shell pairs
          la=3 lb=1:     39 shell pairs
          la=3 lb=2:     21 shell pairs
          la=3 lb=3:      6 shell pairs
          la=4 lb=0:     19 shell pairs
          la=4 lb=1:     13 shell pairs
          la=4 lb=2:      7 shell pairs
          la=4 lb=3:      3 shell pairs
          la=4 lb=4:      1 shell pairs

Calculating one electron integrals          ... done (  0.1 sec)
Calculating Nuclear repulsion               ... done (  0.0 sec) ENN=     81.667523879670 Eh

SHARK setup successfully completed in   0.5 seconds

Maximum memory used throughout the entire GTOINT-calculation: 30.6 MB
-------------------------------------------------------------------------------
                                 ORCA SCF
-------------------------------------------------------------------------------

------------
SCF SETTINGS
------------
Hamiltonian:
 Density Functional     Method          .... DFT(GTOs)
 Exchange Functional    Exchange        .... PBE
   PBE kappa parameter   XKappa         ....  0.804000
   PBE mue parameter    XMuePBE         ....  0.219520
 Correlation Functional Correlation     .... PBE
   PBE beta parameter  CBetaPBE         ....  0.066725
 LDA part of GGA corr.  LDAOpt          .... PW91-LDA
 Gradients option       PostSCFGGA      .... off
 Hybrid DFT is turned on
   Fraction HF Exchange ScalHFX         ....  0.250000
   Scaling of DF-GGA-X  ScalDFX         ....  0.750000
   Scaling of DF-GGA-C  ScalDFC         ....  1.000000
   Scaling of DF-LDA-C  ScalLDAC        ....  1.000000
   Perturbative correction              ....  0.000000
   Density functional embedding theory  .... OFF
   NL short-range parameter             ....  6.900000


General Settings:
 Integral files         IntName         .... orca
 Hartree-Fock type      HFTyp           .... RHF
 Total Charge           Charge          ....    0
 Multiplicity           Mult            ....    1
 Number of Electrons    NEL             ....   42
 Basis Dimension        Dim             ....  124
 Nuclear Repulsion      ENuc            ....     81.6675238797 Eh

Convergence Acceleration:
 DIIS                   CNVDIIS         .... on
   Start iteration      DIISMaxIt       ....    -1
   Startup error        DIISStart       ....  0.200000
   # of expansion vecs  DIISMaxEq       ....     5
   Bias factor          DIISBfac        ....   1.050
   Max. coefficient     DIISMaxC        ....  10.000
 Trust-Rad. Augm. Hess. CNVTRAH         .... auto
   Auto Start mean grad. ratio tolernc. ....  1.125000
   Auto Start start iteration           ....    20
   Auto Start num. interpolation iter.  ....    10
   Max. Number of Micro iterations      ....    16
   Max. Number of Macro iterations      .... Maxiter - #DIIS iter
   Number of Davidson start vectors     ....     2
   Converg. threshold I  (grad. norm)   ....   5.000e-05
   Converg. threshold II (energy diff.) ....   1.000e-06
   Grad. Scal. Fac. for Micro threshold ....   0.100
   Minimum threshold for Micro iter.    ....   0.010
   NR start threshold (gradient norm)   ....   0.001
   Initial trust radius                 ....   0.400
   Minimum AH scaling param. (alpha)    ....   1.000
   Maximum AH scaling param. (alpha)    .... 1000.000
   Orbital update algorithm             .... Taylor
   White noise on init. David. guess    .... on
   Maximum white noise                  ....   0.010
   Quad. conv. algorithm                .... NR
 SOSCF                  CNVSOSCF        .... off
 Level Shifting         CNVShift        .... on
   Level shift para.    LevelShift      ....    0.2500
   Turn off err/grad.   ShiftErr        ....    0.0010
 Zerner damping         CNVZerner       .... off
 Static damping         CNVDamp         .... on
   Fraction old density DampFac         ....    0.7000
   Max. Damping (<1)    DampMax         ....    0.9800
   Min. Damping (>=0)   DampMin         ....    0.0000
   Turn off err/grad.   DampErr         ....    0.1000
 Fernandez-Rico         CNVRico         .... off

SCF Procedure:
 Maximum # iterations   MaxIter         ....   125
 SCF integral mode      SCFMode         .... Direct
   Integral package                     .... SHARK and LIBINT hybrid scheme
 Reset frequency        DirectResetFreq ....    20
 Integral Threshold     Thresh          ....  1.000e-10 Eh
 Primitive CutOff       TCut            ....  1.000e-11 Eh

Convergence Tolerance:
 Convergence Check Mode ConvCheckMode   .... Total+1el-Energy
 Convergence forced     ConvForced      .... 1
 Energy Change          TolE            ....  1.000e-06 Eh
 1-El. energy change                    ....  1.000e-03 Eh
 DIIS Error             TolErr          ....  1.000e-06


Diagonalization of the overlap matrix:
Smallest eigenvalue                        ... 1.219e-03
Time for diagonalization                   ...    0.003 sec
Threshold for overlap eigenvalues          ... 1.000e-08
Number of eigenvalues below threshold      ... 0
Time for construction of square roots      ...    0.003 sec
Total time needed                          ...    0.005 sec

--------------------
INITIAL GUESS: HCORE
--------------------
                      -----------------
                      INTIAL GUESS DONE 
                      -----------------
-------------------
DFT GRID GENERATION
-------------------

General Integration Accuracy     IntAcc      ... 4.388
Radial Grid Type                 RadialGrid  ... OptM3 with GC (2021)
Angular Grid (max. ang.)         AngularGrid ... 4 (Lebedev-302)
Angular grid pruning method      GridPruning ... 4 (adaptive)
Weight generation scheme         WeightScheme... Becke
Basis function cutoff            BFCut       ... 1.0000e-10
Integration weight cutoff        WCut        ... 1.0000e-14
Angular grids for H and He will be reduced by one unit
Partially contracted basis set               ... off
Rotationally invariant grid construction     ... off

Total number of grid points                  ...    24031
Total number of batches                      ...      376
Average number of points per batch           ...       63
Average number of grid points per atom       ...     6008
Time for grid setup =    0.171 sec

--------------
SCF ITERATIONS
--------------
ITER       Energy         Delta-E        Max-DP      RMS-DP      [F,P]     Damp
               ***  Starting incremental Fock matrix formation  ***
  0  -1974.0333944246   0.000000000000 3.75014050  0.08704184 26.1800619 0.7000
  1  -2191.4727204766-217.439326052055 2.60188574  0.06071544 14.5277881 0.7000
                               ***Turning on DIIS***
  2  -2271.2191771631 -79.746456686527 1.35969152  0.04172284  8.5509051 0.7000
  3  -2322.8479422406 -51.628765077511 1.27608156  0.02711816  5.7373941 0.7000
  4  -2357.0208254296 -34.172883188927 0.87449217  0.02009489  3.9923127 0.7000
  5  -2381.9193936765 -24.898568246898 0.62937143  0.01412554  2.7807445 0.7000
  6  -2399.2611041733 -17.341710496874 0.44450141  0.00992345  1.9337507 0.7000
  7  -2411.3496961640 -12.088591990625 0.31328726  0.00708388  1.3471466 0.7000
  8  -2419.8076353133  -8.457939149370 0.21989711  0.00501339  0.9397576 0.7000
  9  -2425.7218827424  -5.914247429031 0.15411625  0.00356235  0.6565552 0.7000
 10  -2429.8609310874  -4.139048345040 0.10799150  0.00249592  0.4589998 0.7000
 11  -2432.7565273598  -2.895596272362 0.07523762  0.00174074  0.3209630 0.7000
 12  -2434.7824465227  -2.025919162975 0.05236309  0.00122341  0.2244994 0.7000
 13  -2436.2003078519  -1.417861329117 0.03664676  0.00086516  0.1570690 0.7000
 14  -2437.1927553604  -0.992447508504 0.02574136  0.00061114  0.1099120 0.7000
 15  -2437.8874212519  -0.694665891581 0.06013704  0.00142663  0.0769207 0.0000
 16  -2439.5080636568  -1.620642404826 0.00105258  0.00002869  0.0010537 0.0000
 17  -2439.5080648844  -0.000001227671 0.00077703  0.00002004  0.0009206 0.0000
 18  -2439.5080665667  -0.000001682274 0.00018439  0.00000555  0.0001765 0.0000
 19  -2439.5080666615  -0.000000094800 0.00006526  0.00000166  0.0000447 0.0000
               *** Restarting incremental Fock matrix formation ***
                                   *** Resetting DIIS ***
 20  -2439.5080666592   0.000000002355 0.00003104  0.00000055  0.0000131 0.0000
                 **** Energy Check signals convergence ****

               *****************************************************
               *                     SUCCESS                       *
               *           SCF CONVERGED AFTER  21 CYCLES          *
               *****************************************************


----------------
TOTAL SCF ENERGY
----------------

Total Energy       :        -2439.50806666 Eh          -66382.38931 eV

Components:
Nuclear Repulsion  :           81.66752388 Eh            2222.28630 eV
Electronic Energy  :        -2521.17559054 Eh          -68604.67561 eV
One Electron Energy:        -3558.62976478 Eh          -96835.23891 eV
Two Electron Energy:         1037.45417424 Eh           28230.56330 eV

Virial components:
Potential Energy   :        -4888.53318394 Eh         -133023.75073 eV
Kinetic Energy     :         2449.02511728 Eh           66641.36142 eV
Virial Ratio       :            1.99611394


DFT components:
N(Alpha)           :       21.000001245362 electrons
N(Beta)            :       21.000001245362 electrons
N(Total)           :       42.000002490723 electrons
E(X)               :      -68.290968433272 Eh       
E(C)               :       -1.899929634472 Eh       
E(XC)              :      -70.190898067744 Eh       
DFET-embed. en.    :        0.000000000000 Eh       

---------------
SCF CONVERGENCE
---------------

  Last Energy change         ...   -7.8353e-10  Tolerance :   1.0000e-06
  Last MAX-Density change    ...    1.4923e-05  Tolerance :   1.0000e-05
  Last RMS-Density change    ...    3.7605e-07  Tolerance :   1.0000e-06
  Last DIIS Error            ...    1.8502e-05  Tolerance :   1.0000e-06

             **** THE GBW FILE WAS UPDATED (orca.gbw) ****
             **** DENSITY orca.scfp WAS UPDATED ****
             **** ENERGY FILE WAS UPDATED (orca.en.tmp) ****
             **** THE GBW FILE WAS UPDATED (orca.gbw) ****
             **** DENSITY orca.scfp WAS UPDATED ****
----------------
ORBITAL ENERGIES
----------------

  NO   OCC          E(Eh)            E(eV) 
   0   2.0000    -453.698237    -12345.7567 
   1   2.0000     -58.101700     -1581.0276 
   2   2.0000     -52.143278     -1418.8907 
   3   2.0000     -52.142313     -1418.8645 
   4   2.0000     -52.139578     -1418.7901 
   5   2.0000     -10.305636      -280.4306 
   6   2.0000      -7.876134      -214.3205 
   7   2.0000      -5.800586      -157.8420 
   8   2.0000      -5.798005      -157.7717 
   9   2.0000      -5.788165      -157.5040 
  10   2.0000      -2.145994       -58.3955 
  11   2.0000      -2.144941       -58.3668 
  12   2.0000      -2.136658       -58.1414 
  13   2.0000      -2.134836       -58.0919 
  14   2.0000      -2.132880       -58.0386 
  15   2.0000      -0.790652       -21.5147 
  16   2.0000      -0.618839       -16.8395 
  17   2.0000      -0.475569       -12.9409 
  18   2.0000      -0.392159       -10.6712 
  19   2.0000      -0.313729        -8.5370 
  20   2.0000      -0.235944        -6.4204 
  21   0.0000      -0.103641        -2.8202 
  22   0.0000       0.043763         1.1909 
  23   0.0000       0.098681         2.6852 
  24   0.0000       0.105621         2.8741 
  25   0.0000       0.222685         6.0596 
  26   0.0000       0.241141         6.5618 
  27   0.0000       0.272807         7.4235 
  28   0.0000       0.290454         7.9036 
  29   0.0000       0.305866         8.3230 
  30   0.0000       0.308446         8.3933 
  31   0.0000       0.326508         8.8847 
  32   0.0000       0.464762        12.6468 
  33   0.0000       0.501858        13.6562 
  34   0.0000       0.537464        14.6252 
  35   0.0000       0.598367        16.2824 
  36   0.0000       0.616540        16.7769 
  37   0.0000       0.787838        21.4382 
  38   0.0000       0.791383        21.5346 
  39   0.0000       0.909404        24.7461 
  40   0.0000       0.917905        24.9775 
  41   0.0000       0.918883        25.0041 
  42   0.0000       1.007577        27.4176 
  43   0.0000       1.148245        31.2453 
  44   0.0000       1.250321        34.0230 
  45   0.0000       1.306379        35.5484 
  46   0.0000       1.501985        40.8711 
  47   0.0000       1.542829        41.9825 
  48   0.0000       1.578808        42.9615 
  49   0.0000       1.583235        43.0820 
  50   0.0000       1.593392        43.3584 
  51   0.0000       1.614332        43.9282 
  52   0.0000       1.776770        48.3484 
  53   0.0000       1.800213        48.9863 
  54   0.0000       1.857278        50.5391 
  55   0.0000       1.874445        51.0063 
  56   0.0000       2.074887        56.4605 
  57   0.0000       2.090454        56.8841 
  58   0.0000       2.260552        61.5128 
  59   0.0000       2.272326        61.8331 
  60   0.0000       2.351311        63.9824 
  61   0.0000       2.356381        64.1204 
  62   0.0000       2.468718        67.1772 
  63   0.0000       2.603042        70.8324 
  64   0.0000       2.614360        71.1404 
  65   0.0000       2.800444        76.2039 
  66   0.0000       3.073350        83.6301 
  67   0.0000       3.178872        86.5015 
  68   0.0000       3.186899        86.7199 
  69   0.0000       3.236795        88.0777 
  70   0.0000       3.268402        88.9377 
  71   0.0000       3.392788        92.3224 
  72   0.0000       3.417354        92.9909 
  73   0.0000       3.503071        95.3234 
  74   0.0000       3.587852        97.6304 
  75   0.0000       3.608126        98.1821 
  76   0.0000       3.629172        98.7548 
  77   0.0000       3.784214       102.9737 
  78   0.0000       3.932818       107.0174 
  79   0.0000       4.004289       108.9622 
  80   0.0000       4.189958       114.0146 
  81   0.0000       4.710273       128.1730 
  82   0.0000       4.872682       132.5924 
  83   0.0000       4.907726       133.5460 
  84   0.0000       5.010113       136.3321 
  85   0.0000       5.044502       137.2679 
  86   0.0000       5.296085       144.1138 
  87   0.0000       5.477666       149.0549 
  88   0.0000       6.071970       165.2267 
  89   0.0000       6.072735       165.2475 
  90   0.0000       6.073031       165.2556 
  91   0.0000       6.080178       165.4501 
  92   0.0000       6.094956       165.8522 
  93   0.0000       6.141561       167.1204 
  94   0.0000       6.148870       167.3193 
  95   0.0000       6.563489       178.6016 
  96   0.0000       8.734137       237.6680 
  97   0.0000       8.747464       238.0306 
  98   0.0000       8.896764       242.0933 
  99   0.0000       8.975777       244.2433 
 100   0.0000       9.424020       256.4406 
 101   0.0000      16.762784       456.1386 
 102   0.0000      16.790380       456.8895 
 103   0.0000      17.082710       464.8442 
 104   0.0000      25.232233       686.6040 
 105   0.0000      25.232784       686.6189 
 106   0.0000      25.232971       686.6240 
 107   0.0000      25.233004       686.6249 
 108   0.0000      25.239545       686.8029 
 109   0.0000      25.253281       687.1767 
 110   0.0000      25.275947       687.7935 
 111   0.0000      27.202849       740.2272 
 112   0.0000      27.202918       740.2290 
 113   0.0000      27.208061       740.3690 
 114   0.0000      27.208143       740.3712 
 115   0.0000      27.211775       740.4701 
 116   0.0000      27.212254       740.4831 
 117   0.0000      27.213661       740.5214 
 118   0.0000      27.215947       740.5836 
 119   0.0000      27.216224       740.5911 
 120   0.0000      40.687168      1107.1541 
 121   0.0000      83.388298      2269.1109 
 122   0.0000     501.582736     13648.7601 
 123   0.0000    2777.919905     75591.0436 

                    ********************************
                    * MULLIKEN POPULATION ANALYSIS *
                    ********************************

-----------------------
MULLIKEN ATOMIC CHARGES
-----------------------
   0 Se:    0.232190
   1 C :   -0.409195
   2 H :    0.088472
   3 H :    0.088533
Sum of atomic charges:    0.0000000

--------------------------------
MULLIKEN REDUCED ORBITAL CHARGES
--------------------------------
  0 Ses       :     7.887290  s :     7.887290
      pz      :     5.874161  p :    15.873924
      px      :     5.023541
      py      :     4.976222
      dz2     :     2.000748  d :    10.006454
      dxz     :     2.000393
      dyz     :     2.000342
      dx2y2   :     2.001926
      dxy     :     2.003045
      f0      :     0.000015  f :     0.000142
      f+1     :     0.000016
      f-1     :     0.000018
      f+2     :     0.000004
      f-2     :     0.000022
      f+3     :     0.000034
      f-3     :     0.000033
      g0      :     0.000000  g :     0.000001
      g+1     :     0.000000
      g-1     :     0.000000
      g+2     :     0.000000
      g-2     :     0.000000
      g+3     :     0.000000
      g-3     :     0.000000
      g+4     :     0.000000
      g-4     :     0.000000
  1 C s       :     3.284227  s :     3.284227
      pz      :     1.076710  p :     3.047361
      px      :     0.988104
      py      :     0.982546
      dz2     :     0.014191  d :     0.073055
      dxz     :     0.014112
      dyz     :     0.013340
      dx2y2   :     0.022314
      dxy     :     0.009097
      f0      :     0.000343  f :     0.004553
      f+1     :     0.000364
      f-1     :     0.000536
      f+2     :     0.000179
      f-2     :     0.000941
      f+3     :     0.001055
      f-3     :     0.001135
  2 H s       :     0.860454  s :     0.860454
      pz      :     0.016007  p :     0.048790
      px      :     0.018392
      py      :     0.014392
      dz2     :     0.000719  d :     0.002283
      dxz     :     0.000462
      dyz     :     0.000501
      dx2y2   :     0.000329
      dxy     :     0.000272
  3 H s       :     0.860469  s :     0.860469
      pz      :     0.027319  p :     0.048716
      px      :     0.009173
      py      :     0.012223
      dz2     :     0.000597  d :     0.002282
      dxz     :     0.000794
      dyz     :     0.000744
      dx2y2   :     0.000081
      dxy     :     0.000065


                     *******************************
                     * LOEWDIN POPULATION ANALYSIS *
                     *******************************

----------------------
LOEWDIN ATOMIC CHARGES
----------------------
   0 Se:    0.446108
   1 C :   -0.207805
   2 H :   -0.119317
   3 H :   -0.118986

-------------------------------
LOEWDIN REDUCED ORBITAL CHARGES
-------------------------------
  0 Ses       :     7.567836  s :     7.567836
      pz      :     5.817117  p :    15.977065
      px      :     5.100194
      py      :     5.059754
      dz2     :     2.001582  d :    10.008809
      dxz     :     2.000434
      dyz     :     2.000457
      dx2y2   :     2.000215
      dxy     :     2.006121
      f0      :     0.000019  f :     0.000182
      f+1     :     0.000022
      f-1     :     0.000023
      f+2     :     0.000003
      f-2     :     0.000032
      f+3     :     0.000043
      f-3     :     0.000040
      g0      :     0.000000  g :     0.000001
      g+1     :     0.000000
      g-1     :     0.000000
      g+2     :     0.000000
      g-2     :     0.000000
      g+3     :     0.000000
      g-3     :     0.000000
      g+4     :     0.000000
      g-4     :     0.000000
  1 C s       :     2.817015  s :     2.817015
      pz      :     1.133893  p :     3.125026
      px      :     0.999861
      py      :     0.991272
      dz2     :     0.049775  d :     0.249190
      dxz     :     0.055788
      dyz     :     0.057251
      dx2y2   :     0.043543
      dxy     :     0.042833
      f0      :     0.001996  f :     0.016575
      f+1     :     0.002004
      f-1     :     0.002730
      f+2     :     0.000571
      f-2     :     0.004354
      f+3     :     0.002276
      f-3     :     0.002643
  2 H s       :     0.896047  s :     0.896047
      pz      :     0.074502  p :     0.197028
      px      :     0.066124
      py      :     0.056402
      dz2     :     0.007556  d :     0.026242
      dxz     :     0.005915
      dyz     :     0.004949
      dx2y2   :     0.003462
      dxy     :     0.004360
  3 H s       :     0.895966  s :     0.895966
      pz      :     0.099801  p :     0.196820
      px      :     0.045488
      py      :     0.051530
      dz2     :     0.008944  d :     0.026200
      dxz     :     0.007264
      dyz     :     0.007663
      dx2y2   :     0.001088
      dxy     :     0.001242


                      *****************************
                      * MAYER POPULATION ANALYSIS *
                      *****************************

  NA   - Mulliken gross atomic population
  ZA   - Total nuclear charge
  QA   - Mulliken gross atomic charge
  VA   - Mayer's total valence
  BVA  - Mayer's bonded valence
  FA   - Mayer's free valence

  ATOM       NA         ZA         QA         VA         BVA        FA
  0 Se    33.7678    34.0000     0.2322     1.9649     1.9649     0.0000
  1 C      6.4092     6.0000    -0.4092     3.9401     3.9401    -0.0000
  2 H      0.9115     1.0000     0.0885     1.0034     1.0034    -0.0000
  3 H      0.9115     1.0000     0.0885     1.0033     1.0033     0.0000

  Mayer bond orders larger than 0.100000
B(  0-Se,  1-C ) :   1.9578 B(  1-C ,  2-H ) :   0.9912 B(  1-C ,  3-H ) :   0.9910 


-------
TIMINGS
-------

Total SCF time: 0 days 0 hours 0 min 33 sec 

Total time                  ....      33.001 sec
Sum of individual times     ....      31.444 sec  ( 95.3%)

Fock matrix formation       ....      31.202 sec  ( 94.5%)
  XC integration            ....       4.205 sec  ( 13.5% of F)
    Basis function eval.    ....       1.501 sec  ( 35.7% of XC)
    Density eval.           ....       0.772 sec  ( 18.3% of XC)
    XC-Functional eval.     ....       0.529 sec  ( 12.6% of XC)
    XC-Potential eval.      ....       1.247 sec  ( 29.7% of XC)
Diagonalization             ....       0.046 sec  (  0.1%)
Density matrix formation    ....       0.003 sec  (  0.0%)
Population analysis         ....       0.004 sec  (  0.0%)
Initial guess               ....       0.003 sec  (  0.0%)
Orbital Transformation      ....       0.000 sec  (  0.0%)
Orbital Orthonormalization  ....       0.000 sec  (  0.0%)
DIIS solution               ....       0.017 sec  (  0.1%)
Grid generation             ....       0.171 sec  (  0.5%)

Maximum memory used throughout the entire SCF-calculation: 255.9 MB
------------------------------------------------------------------------------
                        ORCA TD-DFT/TDA CALCULATION
------------------------------------------------------------------------------

Input orbitals are from        ... orca.gbw
CI-vector output               ... orca.cis
Tamm-Dancoff approximation     ... operative
CIS-Integral strategy          ... AO-integrals
Integral handling              ... AO integral Direct
Max. core memory used          ... 512 MB
Reference state                ... RHF
Generation of triplets         ... on
Follow IRoot                   ... off
Number of operators            ... 1
Orbital ranges used for CIS calculation:
 Operator 0:  Orbitals  10... 20  to  21...123
XAS localization array:
 Operator 0:  Orbitals  -1... -1

-------------------
XC-INTEGRATION GRID
-------------------

General Integration Accuracy     IntAcc      ... 3.467
Radial Grid Type                 RadialGrid  ... OptM3 with GC (2021)
Angular Grid (max. ang.)         AngularGrid ... 1 (Lebedev-50)
Angular grid pruning method      GridPruning ... 4 (adaptive)
Weight generation scheme         WeightScheme... Becke
Basis function cutoff            BFCut       ... 1.0000e-10
Integration weight cutoff        WCut        ... 1.0000e-14
Angular grids for H and He will be reduced by one unit
Partially contracted basis set               ... off
Rotationally invariant grid construction     ... off

Total number of grid points                  ...     6162
Total number of batches                      ...       98
Average number of points per batch           ...       62
Average number of grid points per atom       ...     1540

---------------
TD-DFT XC SETUP
---------------

DFT calculation                         ... on
Name of the grid file                   ... orca.grid_cis.tmp
Exchange functional (TD-DFT)            ... PBE
   PBE kappa parameter  XKappa (TD-DFT) ...  0.804000
   PBE mue parameter   XMuePBE (TD-DFT) ...  0.219520
Correlation functional (TD-DFT)         ... PBE
   PBE beta parameter CBetaPBE (TD-DFT) ...  0.066725
 LDA part of GGA corr.  LDAOpt (TD-DFT) ... PW91-LDA
Hybrid DFT                              ... on
   Exchange mixing (TD-DFT)             ...  0.250
   GGA exch. scaling (TD-DFT)           ...  0.750
   GGA corr. scaling (TD-DFT)           ...  1.000

Building densities             ... done
Calculating rho(r) on the grid ... done
Building xc-kernel on the grid ... done
                    *** TD-DFT CALCULATION INITIALIZED ***

------------------------
DAVIDSON-DIAGONALIZATION
------------------------

Dimension of the eigenvalue problem            ...   1133
Number of roots to be determined               ...     10
Maximum size of the expansion space            ...    100
Maximum number of iterations                   ...    100
Convergence tolerance for the residual         ...    1.000e-06
Convergence tolerance for the energies         ...    1.000e-06
Orthogonality tolerance                        ...    1.000e-14
Level Shift                                    ...    0.000e+00
Constructing the preconditioner                ... o.k.
Building the initial guess                     ... o.k.
Number of trial vectors determined             ...    100


                       ****Iteration    0****

   Memory handling for direct AO based CIS:
   Memory per vector needed      ...     1 MB
   Memory needed                 ...    10 MB
   Memory available              ...   512 MB
   Number of vectors per batch   ...   512
   Number of batches             ...     1
   Time for densities:            0.003
   SHARK[1a]
   Time for J+K (Direct):         8.167
   Time for XC-Integration:       0.905
   Time for Sigma-Completion:     0.004
   Size of expansion space: 30
   Lowest Energy          :     0.070978458988
   Maximum Energy change  :     0.365034965126 (vector 9)
   Maximum residual norm  :     0.019285701678

                       ****Iteration    1****
   Time for densities:            0.001
   SHARK[1a]
   Time for J+K (Direct):         3.772
   Time for XC-Integration:       0.333
   Time for Sigma-Completion:     0.001
   Size of expansion space: 40
   Lowest Energy          :     0.070598676955
   Maximum Energy change  :     0.021639419765 (vector 3)
   Maximum residual norm  :     0.000425800793

                       ****Iteration    2****
   Time for densities:            0.001
   SHARK[1a]
   Time for J+K (Direct):         3.706
   Time for XC-Integration:       0.332
   Time for Sigma-Completion:     0.001
   Size of expansion space: 50
   Lowest Energy          :     0.070598189655
   Maximum Energy change  :     0.000167523228 (vector 2)
   Maximum residual norm  :     0.000024300760

                       ****Iteration    3****
   Time for densities:            0.001
   SHARK[1a]
   Time for J+K (Direct):         3.707
   Time for XC-Integration:       0.336
   Time for Sigma-Completion:     0.001
   Size of expansion space: 60
   Lowest Energy          :     0.070598189290
   Maximum Energy change  :     0.000004597048 (vector 2)
   Maximum residual norm  :     0.000000079295

      *** CONVERGENCE OF RESIDUAL NORM REACHED ***

Storing the converged CI vectors               ... orca.cis1

                 *** DAVIDSON DONE ***

Total time for solving the CIS problem:    21.563sec

------------------------------------
TD-DFT/TDA EXCITED STATES (SINGLETS)
------------------------------------

the weight of the individual excitations are printed if larger than 1.0e-02

STATE  1:  E=   0.070598 au      1.921 eV    15494.5 cm**-1 <S**2> =   0.000000
    20a ->  21a  :     0.999371 (c=  0.99968559)

STATE  2:  E=   0.225695 au      6.141 eV    49534.3 cm**-1 <S**2> =   0.000000
    18a ->  21a  :     0.983687 (c=  0.99181019)

STATE  3:  E=   0.230680 au      6.277 eV    50628.3 cm**-1 <S**2> =   0.000000
    18a ->  22a  :     0.044629 (c=  0.21125616)
    18a ->  23a  :     0.026785 (c=  0.16366063)
    18a ->  28a  :     0.014769 (c= -0.12152877)
    19a ->  21a  :     0.856298 (c=  0.92536394)
    20a ->  24a  :     0.014741 (c=  0.12141365)
    20a ->  29a  :     0.017022 (c= -0.13046841)

STATE  4:  E=   0.231285 au      6.294 eV    50761.3 cm**-1 <S**2> =   0.000000
    20a ->  22a  :     0.988232 (c= -0.99409855)

STATE  5:  E=   0.280965 au      7.645 eV    61664.6 cm**-1 <S**2> =   0.000000
    20a ->  23a  :     0.990131 (c=  0.99505326)

STATE  6:  E=   0.296926 au      8.080 eV    65167.7 cm**-1 <S**2> =   0.000000
    17a ->  21a  :     0.995259 (c= -0.99762688)

STATE  7:  E=   0.299467 au      8.149 eV    65725.3 cm**-1 <S**2> =   0.000000
    18a ->  22a  :     0.013531 (c= -0.11632146)
    20a ->  24a  :     0.972489 (c=  0.98614836)

STATE  8:  E=   0.304644 au      8.290 eV    66861.6 cm**-1 <S**2> =   0.000000
    19a ->  22a  :     0.993241 (c=  0.99661477)

STATE  9:  E=   0.355243 au      9.667 eV    77966.7 cm**-1 <S**2> =   0.000000
    19a ->  23a  :     0.990463 (c=  0.99521985)

STATE 10:  E=   0.364250 au      9.912 eV    79943.5 cm**-1 <S**2> =   0.000000
    19a ->  24a  :     0.995249 (c=  0.99762142)


                  ********************************
                  * Entering triplet calculation *
                  ********************************

------------------------
DAVIDSON-DIAGONALIZATION
------------------------

Dimension of the eigenvalue problem            ...   1133
Number of roots to be determined               ...     10
Maximum size of the expansion space            ...    100
Maximum number of iterations                   ...    100
Convergence tolerance for the residual         ...    1.000e-06
Convergence tolerance for the energies         ...    1.000e-06
Orthogonality tolerance                        ...    1.000e-14
Level Shift                                    ...    0.000e+00
Constructing the preconditioner                ... o.k.
Building the initial guess                     ... o.k.
Number of trial vectors determined             ...    100


                       ****Iteration    0****
                <<< Triplet sigma vectors requested >>>

   Memory handling for direct AO based CIS:
   Memory per vector needed      ...     1 MB
   Memory needed                 ...     7 MB
   Memory available              ...   512 MB
   Number of vectors per batch   ...   512
   Number of batches             ...     1
   Time for densities:            0.003
   SHARK[2G] - ScalHFX=    0.250 ScalHFX_loc=    1.000 facx=    1.000
   Time for K (Direct):           5.650
   Time for XC-Integration:       0.895
   Time for Sigma-Completion:     0.004
   Size of expansion space: 30
   Lowest Energy          :     0.050758590801
   Maximum Energy change  :     0.353453551956 (vector 9)
   Maximum residual norm  :     0.003257369768

                       ****Iteration    1****
   Time for densities:            0.001
   SHARK[2G] - ScalHFX=    0.250 ScalHFX_loc=    1.000 facx=    1.000
   Time for K (Direct):           2.954
   Time for XC-Integration:       0.325
   Time for Sigma-Completion:     0.001
   Size of expansion space: 40
   Lowest Energy          :     0.050145684529
   Maximum Energy change  :     0.005319066067 (vector 9)
   Maximum residual norm  :     0.000034662014

                       ****Iteration    2****
   Time for densities:            0.001
   SHARK[2G] - ScalHFX=    0.250 ScalHFX_loc=    1.000 facx=    1.000
   Time for K (Direct):           2.969
   Time for XC-Integration:       0.329
   Time for Sigma-Completion:     0.001
   Size of expansion space: 50
   Lowest Energy          :     0.050145210570
   Maximum Energy change  :     0.000051028563 (vector 9)
   Maximum residual norm  :     0.000000376171

      *** CONVERGENCE OF RESIDUAL NORM REACHED ***

Storing the converged CI vectors               ... orca.cis3

                 *** DAVIDSON DONE ***

------------------------------------
TD-DFT/TDA EXCITED STATES (TRIPLETS)
------------------------------------

the weight of the individual excitations are printed if larger than 1.0e-02

STATE  1:  E=   0.050145 au      1.365 eV    11005.6 cm**-1 <S**2> =   2.000000
    20a ->  21a  :     0.998134 (c= -0.99906648)

STATE  2:  E=   0.092687 au      2.522 eV    20342.5 cm**-1 <S**2> =   2.000000
    19a ->  21a  :     0.993566 (c=  0.99677769)

STATE  3:  E=   0.188527 au      5.130 eV    41376.8 cm**-1 <S**2> =   2.000000
    18a ->  21a  :     0.988031 (c=  0.99399750)

STATE  4:  E=   0.205828 au      5.601 eV    45174.0 cm**-1 <S**2> =   2.000000
    20a ->  22a  :     0.933931 (c= -0.96640103)
    20a ->  23a  :     0.054368 (c= -0.23317000)

STATE  5:  E=   0.271075 au      7.376 eV    59494.1 cm**-1 <S**2> =   2.000000
    17a ->  21a  :     0.860588 (c=  0.92767872)
    20a ->  23a  :     0.122488 (c= -0.34998266)

STATE  6:  E=   0.271091 au      7.377 eV    59497.6 cm**-1 <S**2> =   2.000000
    17a ->  21a  :     0.129133 (c=  0.35935054)
    20a ->  22a  :     0.047151 (c= -0.21714354)
    20a ->  23a  :     0.816246 (c=  0.90346328)

STATE  7:  E=   0.279266 au      7.599 eV    61291.8 cm**-1 <S**2> =   2.000000
    19a ->  22a  :     0.945307 (c=  0.97226917)
    19a ->  23a  :     0.033177 (c=  0.18214541)

STATE  8:  E=   0.285655 au      7.773 eV    62694.0 cm**-1 <S**2> =   2.000000
    20a ->  24a  :     0.984136 (c=  0.99203630)

STATE  9:  E=   0.343401 au      9.344 eV    75367.9 cm**-1 <S**2> =   2.000000
    16a ->  21a  :     0.011017 (c=  0.10496062)
    19a ->  22a  :     0.036023 (c=  0.18979607)
    19a ->  23a  :     0.943216 (c= -0.97119327)

STATE 10:  E=   0.348083 au      9.472 eV    76395.5 cm**-1 <S**2> =   2.000000
    18a ->  22a  :     0.896064 (c=  0.94660643)
    18a ->  23a  :     0.080245 (c=  0.28327469)
    18a ->  28a  :     0.011354 (c= -0.10655498)

------------------------------
TD-DFT/TDA SPIN-ORBIT COUPLING
------------------------------

Calculating the spin-orbit integrals:             

Loading the effective charges         ... done
Entering the SOC calc. section        ... 
------------------------------------------------------------------------------
                         ORCA SPIN-ORBIT COUPLING CALCULATION
------------------------------------------------------------------------------

GBW file                                    ... orca.gbw
Input density                               ... orca.cisp0
Output integrals                            ... orca.cis
Operator type                               ... Mean-field/Effective potential
   One-Electron Terms                       ... 1
   Coulomb Contribution                     ... 4
   Exchange Contribution                    ... 3
   Correlation Contribution                 ... 0
   Maximum number of centers                ... 4
SHARK 1-electron  MaxCenter=4               ... done (  0.0 sec)
Evaluating Coulomb term analytically        ... 
SHARK 2-electron DoJ,X=1,1 MaxCenter=4      ... done ( 24.2 sec)
Transforming the SOC integrals              ... done
Constructing the SOC matrix:                ... done
Diagonalizing the SOC matrix:               ... done

      --------------------------------------------------------------------------------
                      CALCULATED SOCME BETWEEN TRIPLETS AND SINGLETS                  
      --------------------------------------------------------------------------------
           Root                          <T|HSO|S>  (Re, Im) cm-1                     
         T      S             Z                     X                     Y           
      --------------------------------------------------------------------------------
         1      0    (   0.00 ,  189.44 )    (   0.00 , -647.70 )    (  -0.00 ,  662.39 )
         1      1    (   0.00 ,   -0.01 )    (   0.00 ,    0.03 )    (  -0.00 ,    0.01 )
         1      2    (   0.00 ,  -93.29 )    (   0.00 ,  513.07 )    (  -0.00 ,  524.83 )
         1      3    (   0.00 ,  137.26 )    (   0.00 , -495.56 )    (  -0.00 ,  508.94 )
         1      4    (   0.00 ,  257.00 )    (   0.00 ,   45.33 )    (  -0.00 ,    1.36 )
         1      5    (   0.00 , -118.41 )    (   0.00 ,  -28.57 )    (  -0.00 ,    6.87 )
         1      6    (   0.00 ,    0.08 )    (   0.00 ,   -0.39 )    (  -0.00 ,   -0.06 )
         1      7    (   0.00 ,  -20.94 )    (   0.00 ,   70.89 )    (  -0.00 ,  -72.28 )
         1      8    (   0.00 ,   -4.11 )    (   0.00 ,   22.61 )    (  -0.00 ,   23.78 )
         1      9    (   0.00 ,   -0.74 )    (   0.00 ,    3.98 )    (  -0.00 ,    4.19 )
         1     10    (   0.00 ,   -0.01 )    (   0.00 ,    0.08 )    (  -0.00 ,   -0.01 )
         2      0    (   0.00 ,   -0.19 )    (   0.00 ,   -0.07 )    (  -0.00 ,    0.03 )
         2      1    (   0.00 ,  141.81 )    (   0.00 , -485.06 )    (  -0.00 ,  495.73 )
         2      2    (   0.00 , -540.37 )    (   0.00 , -128.10 )    (  -0.00 ,   29.19 )
         2      3    (   0.00 ,   -1.94 )    (   0.00 ,   -0.82 )    (  -0.00 ,   -0.17 )
         2      4    (   0.00 ,   -1.98 )    (   0.00 ,   10.59 )    (  -0.00 ,   10.90 )
         2      5    (   0.00 ,    0.76 )    (   0.00 ,   -4.52 )    (  -0.00 ,   -4.60 )
         2      6    (   0.00 ,  -31.80 )    (   0.00 ,  108.61 )    (  -0.00 , -111.02 )
         2      7    (   0.00 ,    0.78 )    (   0.00 ,    0.28 )    (  -0.00 ,   -0.16 )
         2      8    (   0.00 ,  217.84 )    (   0.00 ,   51.84 )    (  -0.00 ,  -11.94 )
         2      9    (   0.00 ,  135.66 )    (   0.00 ,   32.21 )    (  -0.00 ,   -7.36 )
         2     10    (   0.00 ,    4.69 )    (   0.00 ,  -15.69 )    (  -0.00 ,   16.07 )
         3      0    (   0.00 ,  670.89 )    (   0.00 ,  159.08 )    (  -0.00 ,  -36.22 )
         3      1    (   0.00 ,  -92.74 )    (   0.00 ,  511.06 )    (  -0.00 ,  526.51 )
         3      2    (   0.00 ,   -2.58 )    (   0.00 ,   -0.64 )    (  -0.00 ,    0.12 )
         3      3    (   0.00 ,  705.74 )    (   0.00 ,  168.49 )    (  -0.00 ,  -39.21 )
         3      4    (   0.00 ,   31.71 )    (   0.00 ,  -31.41 )    (  -0.00 ,   35.99 )
         3      5    (   0.00 ,   -4.63 )    (   0.00 ,   18.71 )    (  -0.00 ,  -18.96 )
         3      6    (   0.00 ,   19.92 )    (   0.00 , -108.39 )    (  -0.00 , -111.75 )
         3      7    (   0.00 , -100.99 )    (   0.00 ,  -24.05 )    (  -0.00 ,    5.30 )
         3      8    (   0.00 ,    0.34 )    (   0.00 ,   -0.07 )    (  -0.00 ,   -0.18 )
         3      9    (   0.00 ,    0.04 )    (   0.00 ,    0.08 )    (  -0.00 ,    0.04 )
         3     10    (   0.00 ,    0.25 )    (   0.00 ,   -1.85 )    (  -0.00 ,   -1.83 )
         4      0    (   0.00 ,   74.60 )    (   0.00 , -411.05 )    (  -0.00 , -423.30 )
         4      1    (   0.00 ,  293.45 )    (   0.00 ,   69.71 )    (  -0.00 ,  -15.96 )
         4      2    (   0.00 ,   -5.47 )    (   0.00 ,   18.73 )    (  -0.00 ,  -19.82 )
         4      3    (   0.00 ,  -19.80 )    (   0.00 ,  109.20 )    (  -0.00 ,  112.45 )
         4      4    (   0.00 ,   -0.60 )    (   0.00 ,    3.33 )    (  -0.00 ,    3.44 )
         4      5    (   0.00 ,   -0.10 )    (   0.00 ,    0.46 )    (  -0.00 ,    0.22 )
         4      6    (   0.00 ,   -5.43 )    (   0.00 ,   -0.55 )    (  -0.00 ,   -0.23 )
         4      7    (   0.00 ,   10.87 )    (   0.00 ,  -58.85 )    (  -0.00 ,  -57.05 )
         4      8    (   0.00 ,  139.51 )    (   0.00 , -477.33 )    (  -0.00 ,  488.08 )
         4      9    (   0.00 ,   28.01 )    (   0.00 ,  -96.17 )    (  -0.00 ,   98.25 )
         4     10    (   0.00 ,   -7.14 )    (   0.00 ,   -1.77 )    (  -0.00 ,    0.38 )
         5      0    (   0.00 ,  -30.29 )    (   0.00 ,   85.97 )    (  -0.00 , -186.14 )
         5      1    (   0.00 ,   31.46 )    (   0.00 ,    7.68 )    (  -0.00 ,   -1.57 )
         5      2    (   0.00 ,   19.25 )    (   0.00 , -105.85 )    (  -0.00 , -107.56 )
         5      3    (   0.00 ,  -35.23 )    (   0.00 ,  129.01 )    (  -0.00 ,  -97.15 )
         5      4    (   0.00 ,  -10.96 )    (   0.00 ,    1.31 )    (  -0.00 ,   -2.24 )
         5      5    (   0.00 ,    1.26 )    (   0.00 ,    0.32 )    (  -0.00 ,   -0.06 )
         5      6    (   0.00 ,   -2.71 )    (   0.00 ,   -0.76 )    (  -0.00 ,    0.30 )
         5      7    (   0.00 ,   -3.86 )    (   0.00 ,   12.43 )    (  -0.00 ,  -16.13 )
         5      8    (   0.00 ,   -8.58 )    (   0.00 ,   28.19 )    (  -0.00 ,  -36.31 )
         5      9    (   0.00 ,   50.23 )    (   0.00 , -171.86 )    (  -0.00 ,  175.26 )
         5     10    (   0.00 ,    1.29 )    (   0.00 ,    0.86 )    (  -0.00 ,   -0.66 )
         6      0    (   0.00 ,  -38.05 )    (   0.00 ,  175.23 )    (  -0.00 ,   74.25 )
         6      1    (   0.00 ,  -81.26 )    (   0.00 ,  -19.37 )    (  -0.00 ,    4.51 )
         6      2    (   0.00 ,    7.22 )    (   0.00 ,  -39.87 )    (  -0.00 ,  -42.41 )
         6      3    (   0.00 ,   -4.00 )    (   0.00 ,   -1.15 )    (  -0.00 ,  -90.34 )
         6      4    (   0.00 ,   -3.81 )    (   0.00 ,   -1.47 )    (  -0.00 ,   -1.88 )
         6      5    (   0.00 ,    0.48 )    (   0.00 ,    0.11 )    (  -0.00 ,   -0.19 )
         6      6    (   0.00 ,    6.97 )    (   0.00 ,    1.95 )    (  -0.00 ,   -0.68 )
         6      7    (   0.00 ,   -2.40 )    (   0.00 ,    9.49 )    (  -0.00 ,   -0.85 )
         6      8    (   0.00 ,   24.28 )    (   0.00 ,  -83.84 )    (  -0.00 ,   82.69 )
         6      9    (   0.00 , -129.54 )    (   0.00 ,  443.07 )    (  -0.00 , -453.01 )
         6     10    (   0.00 ,   -3.44 )    (   0.00 ,   -1.82 )    (  -0.00 ,    1.26 )
         7      0    (   0.00 ,  495.73 )    (   0.00 ,  117.78 )    (  -0.00 ,  -26.79 )
         7      1    (   0.00 ,   -6.09 )    (   0.00 ,   33.13 )    (  -0.00 ,   33.93 )
         7      2    (   0.00 ,    1.33 )    (   0.00 ,    0.25 )    (  -0.00 ,   -0.16 )
         7      3    (   0.00 , -354.50 )    (   0.00 ,  -99.41 )    (  -0.00 ,   33.94 )
         7      4    (   0.00 , -151.41 )    (   0.00 ,  478.83 )    (  -0.00 , -491.36 )
         7      5    (   0.00 ,   13.05 )    (   0.00 ,  -46.46 )    (  -0.00 ,   47.31 )
         7      6    (   0.00 ,    1.44 )    (   0.00 ,   -8.85 )    (  -0.00 ,   -8.94 )
         7      7    (   0.00 ,   88.76 )    (   0.00 ,   20.92 )    (  -0.00 ,   -4.70 )
         7      8    (   0.00 ,   -0.20 )    (   0.00 ,   -0.20 )    (  -0.00 ,    0.09 )
         7      9    (   0.00 ,   -0.20 )    (   0.00 ,    0.47 )    (  -0.00 ,   -0.42 )
         7     10    (   0.00 ,    1.55 )    (   0.00 ,   -9.00 )    (  -0.00 ,  -11.66 )
         8      0    (   0.00 ,   -1.19 )    (   0.00 ,    0.07 )    (  -0.00 ,    0.49 )
         8      1    (   0.00 ,   -9.62 )    (   0.00 ,   31.97 )    (  -0.00 ,  -32.83 )
         8      2    (   0.00 ,  -13.97 )    (   0.00 ,   -3.32 )    (  -0.00 ,    0.84 )
         8      3    (   0.00 ,    0.69 )    (   0.00 ,    0.95 )    (  -0.00 ,    0.60 )
         8      4    (   0.00 ,    5.35 )    (   0.00 ,  -28.69 )    (  -0.00 ,  -27.28 )
         8      5    (   0.00 ,   -0.20 )    (   0.00 ,    0.96 )    (  -0.00 ,    0.58 )
         8      6    (   0.00 ,    8.65 )    (   0.00 ,  -29.57 )    (  -0.00 ,   30.32 )
         8      7    (   0.00 ,   -0.10 )    (   0.00 ,    0.02 )    (  -0.00 ,    0.10 )
         8      8    (   0.00 ,   30.75 )    (   0.00 ,    7.02 )    (  -0.00 ,   -1.38 )
         8      9    (   0.00 ,    0.84 )    (   0.00 ,    1.35 )    (  -0.00 ,   -1.12 )
         8     10    (   0.00 , -140.36 )    (   0.00 ,  479.93 )    (  -0.00 , -490.63 )
         9      0    (   0.00 , -225.78 )    (   0.00 ,  -53.61 )    (  -0.00 ,   12.17 )
         9      1    (   0.00 ,    3.35 )    (   0.00 ,  -18.31 )    (  -0.00 ,  -18.94 )
         9      2    (   0.00 ,   -1.08 )    (   0.00 ,   -0.28 )    (  -0.00 ,    0.03 )
         9      3    (   0.00 ,  153.03 )    (   0.00 ,   34.18 )    (  -0.00 ,   -6.15 )
         9      4    (   0.00 ,   -9.67 )    (   0.00 ,   49.59 )    (  -0.00 ,  -51.46 )
         9      5    (   0.00 , -140.55 )    (   0.00 ,  481.29 )    (  -0.00 , -491.53 )
         9      6    (   0.00 ,   -0.87 )    (   0.00 ,    5.00 )    (  -0.00 ,    5.02 )
         9      7    (   0.00 ,  -25.86 )    (   0.00 ,   -6.16 )    (  -0.00 ,    1.51 )
         9      8    (   0.00 ,    0.88 )    (   0.00 ,    0.32 )    (  -0.00 ,   -0.21 )
         9      9    (   0.00 ,    0.23 )    (   0.00 ,    0.00 )    (  -0.00 ,   -0.03 )
         9     10    (   0.00 ,   -1.15 )    (   0.00 ,    6.35 )    (  -0.00 ,    6.79 )
        10      0    (   0.00 ,    0.46 )    (   0.00 ,    0.00 )    (  -0.00 ,   -0.13 )
        10      1    (   0.00 ,    2.71 )    (   0.00 ,   -9.32 )    (  -0.00 ,    9.49 )
        10      2    (   0.00 , -342.81 )    (   0.00 ,  -81.34 )    (  -0.00 ,   18.55 )
        10      3    (   0.00 ,   -4.26 )    (   0.00 ,   14.49 )    (  -0.00 ,   15.39 )
        10      4    (   0.00 ,   90.68 )    (   0.00 , -500.12 )    (  -0.00 , -515.24 )
        10      5    (   0.00 ,  -19.19 )    (   0.00 ,  105.23 )    (  -0.00 ,  110.02 )
        10      6    (   0.00 ,   -1.55 )    (   0.00 ,    2.61 )    (  -0.00 ,   -2.82 )
        10      7    (   0.00 ,    1.94 )    (   0.00 ,    0.97 )    (  -0.00 ,    0.25 )
        10      8    (   0.00 ,  525.06 )    (   0.00 ,  124.38 )    (  -0.00 ,  -28.25 )
        10      9    (   0.00 ,  140.78 )    (   0.00 ,   33.49 )    (  -0.00 ,   -7.63 )
        10     10    (   0.00 ,    9.02 )    (   0.00 ,  -30.08 )    (  -0.00 ,   30.60 )

SOC stabilization of the ground state: -104.6974 cm-1
Eigenvalues of the SOC matrix:

   State:        cm-1         eV
     0:          0.00         0.0000
     1:      11038.43         1.3686
     2:      11040.82         1.3689
     3:      11155.30         1.3831
     4:      15478.09         1.9190
     5:      20480.24         2.5392
     6:      20486.22         2.5400
     7:      20525.03         2.5448
     8:      41449.81         5.1391
     9:      41509.81         5.1466
    10:      41513.10         5.1470
    11:      45234.95         5.6084
    12:      45241.59         5.6092
    13:      45253.38         5.6107
    14:      49657.04         6.1567
    15:      50789.57         6.2971
    16:      50803.77         6.2989
    17:      59568.50         7.3856
    18:      59570.25         7.3858
    19:      59570.54         7.3858
    20:      59600.72         7.3895
    21:      59605.27         7.3901
    22:      59608.68         7.3905
    23:      61406.25         7.6134
    24:      61408.52         7.6137
    25:      61443.85         7.6181
    26:      61743.89         7.6553
    27:      62770.23         7.7825
    28:      62799.25         7.7861
    29:      62800.24         7.7862
    30:      65274.81         8.0930
    31:      65833.04         8.1623
    32:      66959.10         8.3019
    33:      75498.34         9.3606
    34:      75503.26         9.3612
    35:      75505.31         9.3615
    36:      76540.59         9.4898
    37:      76548.41         9.4908
    38:      76553.74         9.4915
    39:      78112.77         9.6847
    40:      80077.23         9.9283

The threshold for printing is 0.0100
Eigenvectors of the SOC matrix:

             E(cm-1)  Weight      Real         Imag     : Root  Spin  Ms
 STATE  0:      0.00
                      0.99240     -0.99612      0.01207 : 0     0     0
 STATE  1:  11038.43
                      0.93841     -0.67342      0.69636 : 1     1     0
                      0.02776     -0.13956      0.09103 : 1     1    -1
                      0.02776      0.08631     -0.14253 : 1     1     1
 STATE  2:  11040.82
                      0.01564     -0.12170     -0.02874 : 1     1     0
                      0.48921      0.58953     -0.37639 : 1     1    -1
                      0.48921     -0.35885     -0.60037 : 1     1     1
 STATE  3:  11155.30
                      0.03981      0.09344     -0.17630 : 1     1     0
                      0.47605     -0.66176      0.19526 : 1     1    -1
                      0.47605     -0.20991     -0.65726 : 1     1     1
 STATE  4:  15478.09
                      0.98012     -0.70605      0.69398 : 1     0     0
 STATE  5:  20480.24
                      0.01561     -0.08868      0.08804 : 2     1     0
                      0.48906     -0.00789     -0.69928 : 2     1    -1
                      0.48906     -0.69921     -0.01302 : 2     1     1
 STATE  6:  20486.22
                      0.93857      0.94697      0.20448 : 2     1     0
                      0.02774      0.15092      0.07043 : 2     1    -1
                      0.02774     -0.16654      0.00188 : 2     1     1
 STATE  7:  20525.03
                      0.01891     -0.09985      0.09455 : 1     0     0
                      0.03930     -0.13630     -0.14394 : 2     1     0
                      0.47039     -0.02615      0.68535 : 2     1    -1
                      0.47039     -0.68576     -0.01124 : 2     1     1
 STATE  8:  41449.81
                      0.93721     -0.53863      0.80442 : 3     1     0
                      0.02771     -0.12103      0.11430 : 3     1    -1
                      0.02771      0.05959     -0.15544 : 3     1     1
 STATE  9:  41509.81
                      0.04004     -0.13940      0.14357 : 3     1     0
                      0.47924      0.69226     -0.00251 : 3     1    -1
                      0.47924      0.01787      0.69204 : 3     1     1
 STATE 10:  41513.10
                      0.01570     -0.08762     -0.08959 : 3     1     0
                      0.49121      0.70086     -0.00253 : 3     1    -1
                      0.49121      0.01813     -0.70063 : 3     1     1
 STATE 11:  45234.95
                      0.94151      0.67871      0.69344 : 4     1     0
                      0.02790      0.08731      0.14239 : 4     1    -1
                      0.02790     -0.14048     -0.09034 : 4     1     1
 STATE 12:  45241.59
                      0.04015     -0.19533     -0.04465 : 4     1     0
                      0.47910      0.36150      0.59027 : 4     1    -1
                      0.47910     -0.58205      0.37459 : 4     1     1
 STATE 13:  45253.38
                      0.01568     -0.12045     -0.03429 : 4     1     0
                      0.49066      0.60692     -0.34971 : 4     1    -1
                      0.49066     -0.33170     -0.61696 : 4     1     1
 STATE 14:  49657.04
                      0.99875     -0.22219      0.97436 : 2     0     0
 STATE 15:  50789.57
                      0.92314     -0.69044     -0.66815 : 3     0     0
                      0.06803      0.18743      0.18138 : 4     0     0
 STATE 16:  50803.77
                      0.06768     -0.18665     -0.18122 : 3     0     0
                      0.92697     -0.69077     -0.67068 : 4     0     0
 STATE 17:  59568.50
                      0.01770      0.03715      0.12775 : 6     1     0
                      0.10774      0.32578     -0.04009 : 5     1    -1
                      0.38232     -0.50926     -0.35068 : 6     1    -1
                      0.10774      0.29647     -0.14087 : 5     1     1
                      0.38232     -0.24178      0.56909 : 6     1     1
 STATE 18:  59570.25
                      0.05138      0.19328      0.11840 : 5     1     0
                      0.18901     -0.37073     -0.22711 : 6     1     0
                      0.08127     -0.22341     -0.17709 : 5     1    -1
                      0.29767      0.02372      0.54508 : 6     1    -1
                      0.08127      0.25925      0.11859 : 5     1     1
                      0.29767     -0.49637      0.22648 : 6     1     1
 STATE 19:  59570.54
                      0.10999      0.22501      0.24364 : 5     1     0
                      0.62930     -0.53821     -0.58278 : 6     1     0
                      0.02641      0.08477      0.13864 : 5     1    -1
                      0.10286     -0.04011     -0.31820 : 6     1    -1
                      0.02641     -0.13147     -0.09551 : 5     1     1
                      0.10286      0.31401      0.06524 : 6     1     1
 STATE 20:  59600.72
                      0.79128     -0.87143      0.17857 : 5     1     0
                      0.14774     -0.37655      0.07716 : 6     1     0
                      0.02526     -0.15870     -0.00832 : 5     1    -1
                      0.02526      0.14264     -0.07007 : 5     1     1
 STATE 21:  59605.27
                      0.01238     -0.10904     -0.02210 : 6     1     0
                      0.38579      0.46883     -0.40742 : 5     1    -1
                      0.10395      0.32197      0.01678 : 6     1    -1
                      0.38579     -0.27322     -0.55780 : 5     1     1
                      0.10395     -0.30310     -0.10990 : 6     1     1
 STATE 22:  59608.68
                      0.03892     -0.19331      0.03932 : 5     1     0
                      0.37281      0.54098      0.28310 : 5     1    -1
                      0.10638      0.10968      0.30716 : 6     1    -1
                      0.37281     -0.38739      0.47196 : 5     1     1
                      0.10638      0.01904      0.32560 : 6     1     1
 STATE 23:  61406.25
                      0.01593      0.08780      0.09067 : 7     1     0
                      0.48993     -0.69994     -0.00439 : 7     1    -1
                      0.48993     -0.01810      0.69972 : 7     1     1
 STATE 24:  61408.52
                      0.03474     -0.13297     -0.13059 : 5     0     0
                      0.03696     -0.13472      0.13717 : 7     1     0
                      0.46110      0.67903      0.00472 : 7     1    -1
                      0.46110      0.01697      0.67883 : 7     1     1
 STATE 25:  61443.85
                      0.94181      0.68829     -0.68415 : 7     1     0
                      0.02713      0.13896     -0.08844 : 7     1    -1
                      0.02713     -0.08928      0.13842 : 7     1     1
 STATE 26:  61743.89
                      0.96254     -0.70717     -0.68004 : 5     0     0
                      0.01660     -0.12882      0.00141 : 7     1    -1
                      0.01660     -0.00363     -0.12877 : 7     1     1
 STATE 27:  62770.23
                      0.04012      0.15423      0.12780 : 8     1     0
                      0.47873     -0.05673     -0.68958 : 8     1    -1
                      0.47873      0.68811     -0.07235 : 8     1     1
 STATE 28:  62799.25
                      0.94368      0.87103      0.43010 : 8     1     0
                      0.02801      0.12990      0.10551 : 8     1    -1
                      0.02801     -0.16275     -0.03899 : 8     1     1
 STATE 29:  62800.24
                      0.01581      0.08001     -0.09698 : 8     1     0
                      0.49173      0.07711      0.69698 : 8     1    -1
                      0.49173      0.69894     -0.05669 : 8     1     1
 STATE 30:  65274.81
                      0.99963      0.49853     -0.86665 : 6     0     0
 STATE 31:  65833.04
                      0.99947      0.24770      0.96857 : 7     0     0
 STATE 32:  66959.10
                      0.99525      0.22089     -0.97286 : 8     0     0
 STATE 33:  75498.34
                      0.01569      0.08762      0.08952 : 9     1     0
                      0.48857     -0.69897      0.00359 : 9     1    -1
                      0.48857     -0.01854      0.69874 : 9     1     1
 STATE 34:  75503.26
                      0.04245      0.14338     -0.14795 : 9     1     0
                      0.47471     -0.68899      0.00326 : 9     1    -1
                      0.47471     -0.01836     -0.68875 : 9     1     1
 STATE 35:  75505.31
                      0.93953     -0.69844      0.67209 : 9     1     0
                      0.02924     -0.14758      0.08636 : 9     1    -1
                      0.02924      0.09196     -0.14415 : 9     1     1
 STATE 36:  76540.59
                      0.93055      0.93992      0.21701 : 10     1     0
                      0.02808      0.15060      0.07346 : 10     1    -1
                      0.02808     -0.16756      0.00000 : 10     1     1
 STATE 37:  76548.41
                      0.04077      0.14136      0.14420 : 10     1     0
                      0.47581      0.01373     -0.68965 : 10     1    -1
                      0.47581      0.68979      0.00000 : 10     1     1
 STATE 38:  76553.74
                      0.01568     -0.08710      0.08999 : 10     1     0
                      0.48808     -0.02276     -0.69826 : 10     1    -1
                      0.48808     -0.69863      0.00000 : 10     1     1
 STATE 39:  78112.77
                      0.98940     -0.22100      0.96982 : 9     0     0
 STATE 40:  80077.23
                      0.99819     -0.71249      0.70039 : 10     0     0

-----------------------------
TD-DFT/TDA-EXCITATION SPECTRA
-----------------------------

Center of mass = (  9.3942,  8.7853,  6.9873)
Calculating the Dipole integrals                  ... done
Transforming integrals                            ... done
Calculating the Linear Momentum integrals         ... done
Transforming integrals                            ... done
Calculating angular momentum integrals            ... done
Transforming integrals                            ... done

-----------------------------------------------------------------------------
         ABSORPTION SPECTRUM VIA TRANSITION ELECTRIC DIPOLE MOMENTS
-----------------------------------------------------------------------------
State   Energy    Wavelength  fosc         T2        TX        TY        TZ  
        (cm-1)      (nm)                 (au**2)    (au)      (au)      (au) 
-----------------------------------------------------------------------------
   1   15494.5    645.4   0.000000000   0.00000  -0.00005   0.00007   0.00005
   2   49534.3    201.9   0.019825908   0.13177  -0.24759   0.26168   0.04459
   3   50628.3    197.5   0.271383965   1.76468  -0.91060  -0.92926   0.26826
   4   50761.3    197.0   0.000680390   0.00441  -0.03987  -0.03111  -0.04307
   5   61664.6    162.2   0.004543457   0.02426  -0.03831  -0.01084  -0.15057
   6   65167.7    153.5   0.000000429   0.00000  -0.00015  -0.00146   0.00012
   7   65725.3    152.1   0.168875410   0.84588   0.62883   0.64519  -0.18490
   8   66861.6    149.6   0.031648450   0.15583  -0.27560   0.27812   0.05021
   9   77966.7    128.3   0.016301669   0.06883   0.18101  -0.18711  -0.03255
  10   79943.5    125.1   0.000000464   0.00000   0.00043  -0.00112  -0.00068
  11   11005.6    908.6   spin forbidden (mult=3)
  12   20342.5    491.6   spin forbidden (mult=3)
  13   41376.8    241.7   spin forbidden (mult=3)
  14   45174.0    221.4   spin forbidden (mult=3)
  15   59494.1    168.1   spin forbidden (mult=3)
  16   59497.6    168.1   spin forbidden (mult=3)
  17   61291.8    163.2   spin forbidden (mult=3)
  18   62694.0    159.5   spin forbidden (mult=3)
  19   75367.9    132.7   spin forbidden (mult=3)
  20   76395.5    130.9   spin forbidden (mult=3)

-----------------------------------------------------------------------------
         ABSORPTION SPECTRUM VIA TRANSITION VELOCITY DIPOLE MOMENTS
-----------------------------------------------------------------------------
State   Energy    Wavelength   fosc        P2         PX        PY        PZ  
        (cm-1)      (nm)                 (au**2)     (au)      (au)      (au) 
-----------------------------------------------------------------------------
   1   15494.5    645.4   0.000000025   0.00000   0.00003  -0.00003  -0.00002
   2   49534.3    201.9   0.000727552   0.00025  -0.01070   0.01132   0.00191
   3   50628.3    197.5   0.008894001   0.00308  -0.03749  -0.03868   0.01326
   4   50761.3    197.0   0.018477529   0.00641  -0.01948  -0.00525  -0.07748
   5   61664.6    162.2   0.010979846   0.00463   0.01600   0.00394   0.06600
   6   65167.7    153.5   0.000000089   0.00000   0.00003   0.00020   0.00001
   7   65725.3    152.1   0.069115347   0.03105  -0.12041  -0.12364   0.03551
   8   66861.6    149.6   0.017731886   0.00810   0.06284  -0.06343  -0.01141
   9   77966.7    128.3   0.026920725   0.01435  -0.08271   0.08534   0.01490
  10   79943.5    125.1   0.000000414   0.00000  -0.00011   0.00041   0.00021
  11   11005.6    908.6   spin forbidden (mult=3)
  12   20342.5    491.6   spin forbidden (mult=3)
  13   41376.8    241.7   spin forbidden (mult=3)
  14   45174.0    221.4   spin forbidden (mult=3)
  15   59494.1    168.1   spin forbidden (mult=3)
  16   59497.6    168.1   spin forbidden (mult=3)
  17   61291.8    163.2   spin forbidden (mult=3)
  18   62694.0    159.5   spin forbidden (mult=3)
  19   75367.9    132.7   spin forbidden (mult=3)
  20   76395.5    130.9   spin forbidden (mult=3)

-------------------------------------------------------------------
                             CD SPECTRUM
-------------------------------------------------------------------
State  Energy     Wavelength     R         MX        MY        MZ   
       (cm-1)       (nm)     (1e40*cgs)   (au)      (au)      (au)  
-------------------------------------------------------------------
   1   15494.5    645.4      0.00020   0.37454   0.38301  -0.10957
   2   49534.3    201.9      0.00377   0.19171   0.04374   0.80802
   3   50628.3    197.5      0.00214   0.00984  -0.00931   0.00117
   4   50761.3    197.0      0.00049  -0.30299   0.31203   0.05506
   5   61664.6    162.2     -0.01785  -0.21530   0.22164   0.03906
   6   65167.7    153.5     -0.21908   0.27676   0.28313  -0.08137
   7   65725.3    152.1      0.22112  -0.00028   0.00108   0.00030
   8   66861.6    149.6     -0.00564   0.02364   0.00565   0.09822
   9   77966.7    128.3      0.00795   0.04491   0.01034   0.18975
  10   79943.5    125.1      0.00144  -0.00626  -0.00640   0.00210
  11   11005.6    908.6 spin forbidden
  12   20342.5    491.6 spin forbidden
  13   41376.8    241.7 spin forbidden
  14   45174.0    221.4 spin forbidden
  15   59494.1    168.1 spin forbidden
  16   59497.6    168.1 spin forbidden
  17   61291.8    163.2 spin forbidden
  18   62694.0    159.5 spin forbidden
  19   75367.9    132.7 spin forbidden
  20   76395.5    130.9 spin forbidden

-------------------------------------------------------------------
         CD SPECTRUM VIA TRANSITION VELOCITY DIPOLE MOMENTS        
-------------------------------------------------------------------
State  Energy     Wavelength     R         MX        MY        MZ   
       (cm-1)       (nm)     (1e40*cgs)   (au)      (au)      (au)  
-------------------------------------------------------------------
   1   15494.5    645.4     -0.00597   0.37454   0.38301  -0.10957
   2   49534.3    201.9      0.02554   0.19171   0.04374   0.80802
   3   50628.3    197.5     -0.01383   0.00984  -0.00931   0.00117
   4   50761.3    197.0      0.00416  -0.30299   0.31203   0.05506
   5   61664.6    162.2     -0.01111  -0.21530   0.22164   0.03906
   6   65167.7    153.5     -0.10130   0.27676   0.28313  -0.08137
   7   65725.3    152.1      0.14150  -0.00028   0.00108   0.00030
   8   66861.6    149.6     -0.01010   0.02364   0.00565   0.09822
   9   77966.7    128.3      0.00711   0.04491   0.01034   0.18975
[...]
   0  27   62770.2    159.3   0.000000003   0.00000 ( -0.00006,  0.00007) (  0.00004, -0.00005) (  0.00002, -0.00002)
   0  28   62799.3    159.2   0.000002493   0.00001 ( -0.00112,  0.00221) (  0.00118, -0.00231) (  0.00020, -0.00040)
   0  29   62800.2    159.2   0.000013254   0.00007 (  0.00152,  0.00129) (  0.00039,  0.00033) (  0.00617,  0.00522)
   0  30   65274.8    153.2   0.000000425   0.00000 (  0.00007, -0.00012) (  0.00074, -0.00125) ( -0.00006,  0.00010)
   0  31   65833.0    151.9   0.167856438   0.83940 ( -0.14784, -0.60871) ( -0.15169, -0.62456) (  0.04347,  0.17899)
   0  32   66959.1    149.3   0.031311692   0.15395 (  0.06389, -0.26640) ( -0.06446,  0.26879) ( -0.01164,  0.04854)
   0  33   75498.3    132.5   0.000000000   0.00000 (  0.00000, -0.00000) ( -0.00001,  0.00001) ( -0.00001,  0.00001)
   0  34   75503.3    132.4   0.000000443   0.00000 ( -0.00015, -0.00015) (  0.00002,  0.00002) ( -0.00097, -0.00097)
   0  35   75505.3    132.4   0.000000063   0.00000 (  0.00027,  0.00029) (  0.00022,  0.00023) ( -0.00008, -0.00009)
   0  36   76540.6    130.6   0.000425260   0.00183 (  0.00700, -0.02872) ( -0.00721,  0.02958) ( -0.00126,  0.00518)
   0  37   76548.4    130.6   0.000000005   0.00000 (  0.00007, -0.00007) ( -0.00007,  0.00007) ( -0.00002,  0.00002)
   0  38   76553.7    130.6   0.000002631   0.00001 ( -0.00052, -0.00051) ( -0.00011, -0.00011) ( -0.00233, -0.00231)
   0  39   78112.8    128.0   0.015851732   0.06681 (  0.04172, -0.17337) ( -0.04313,  0.17922) ( -0.00750,  0.03118)
   0  40   80077.2    124.9   0.000000461   0.00000 (  0.00031, -0.00030) ( -0.00081,  0.00077) ( -0.00049,  0.00047)

---------------------------------------------------------------------------------------------------------------------
                    SOC CORRECTED ABSORPTION SPECTRUM VIA TRANSITION VELOCITY DIPOLE MOMENTS*  
---------------------------------------------------------------------------------------------------------------------
   State    Energy  Wavelength   fosc         P2              PX                    PY                    PZ  
            (cm-1)    (nm)                  (au**2)          (au)                  (au)                  (au) 
---------------------------------------------------------------------------------------------------------------------
   0   1   11038.4    905.9   0.000025586   0.00000 (  0.00023, -0.00023) (  0.00005, -0.00005) (  0.00095, -0.00096)
   0   2   11040.8    905.7   0.000000001   0.00000 ( -0.00001, -0.00000) (  0.00001,  0.00000) (  0.00000,  0.00000)
   0   3   11155.3    896.4   0.000022082   0.00000 ( -0.00043,  0.00078) ( -0.00044,  0.00080) (  0.00012, -0.00023)
   0   4   15478.1    646.1   0.000000025   0.00000 (  0.00002,  0.00002) ( -0.00002, -0.00002) ( -0.00001, -0.00001)
   0   5   20480.2    488.3   0.000000093   0.00000 ( -0.00002,  0.00002) ( -0.00000,  0.00000) ( -0.00008,  0.00008)
   0   6   20486.2    488.1   0.000000016   0.00000 ( -0.00003, -0.00001) (  0.00003,  0.00001) (  0.00001,  0.00000)
   0   7   20525.0    487.2   0.000000000   0.00000 (  0.00000,  0.00000) ( -0.00000, -0.00000) ( -0.00000, -0.00000)
   0   8   41449.8    241.3   0.000056019   0.00002 (  0.00155, -0.00225) (  0.00158, -0.00230) ( -0.00045,  0.00065)
   0   9   41509.8    240.9   0.000024504   0.00001 ( -0.00043,  0.00043) ( -0.00010,  0.00010) ( -0.00181,  0.00182)
   0  10   41513.1    240.9   0.000000000   0.00000 ( -0.00000, -0.00000) (  0.00000,  0.00000) (  0.00000,  0.00000)
   0  11   45235.0    221.1   0.000000000   0.00000 ( -0.00000, -0.00000) (  0.00000,  0.00000) (  0.00000,  0.00000)
   0  12   45241.6    221.0   0.000044330   0.00001 ( -0.00249, -0.00060) (  0.00256,  0.00062) (  0.00045,  0.00011)
   0  13   45253.4    221.0   0.000005958   0.00000 ( -0.00089, -0.00027) ( -0.00091, -0.00027) (  0.00026,  0.00008)
   0  14   49657.0    201.4   0.000720906   0.00024 ( -0.01037, -0.00250) (  0.01097,  0.00264) (  0.00185,  0.00045)
   0  15   50789.6    196.9   0.009428659   0.00327 (  0.02157, -0.02176) (  0.02498, -0.02520) ( -0.02309,  0.02329)
   0  16   50803.8    196.8   0.017474050   0.00607 (  0.02001, -0.02011) (  0.01059, -0.01065) (  0.05005, -0.05032)
   0  17   59568.5    167.9   0.000011899   0.00000 ( -0.00041, -0.00147) ( -0.00041, -0.00147) (  0.00012,  0.00043)
   0  18   59570.3    167.9   0.000052869   0.00002 ( -0.00298, -0.00188) (  0.00249,  0.00157) (  0.00056,  0.00036)
   0  19   59570.5    167.9   0.000005999   0.00000 (  0.00079,  0.00088) ( -0.00066, -0.00073) ( -0.00016, -0.00018)
   0  20   59600.7    167.8   0.000000246   0.00000 ( -0.00006,  0.00001) ( -0.00011,  0.00002) (  0.00029, -0.00005)
   0  21   59605.3    167.8   0.000008873   0.00000 ( -0.00128, -0.00027) (  0.00133,  0.00029) (  0.00023,  0.00005)
   0  22   59608.7    167.8   0.000648539   0.00026 (  0.01083, -0.00207) (  0.01129, -0.00215) ( -0.00318,  0.00061)
   0  23   61406.3    162.8   0.000000009   0.00000 (  0.00001,  0.00001) (  0.00000,  0.00000) (  0.00004,  0.00004)
   0  24   61408.5    162.8   0.000181526   0.00008 ( -0.00148,  0.00147) ( -0.00038,  0.00037) ( -0.00600,  0.00596)
   0  25   61443.9    162.8   0.000061961   0.00003 ( -0.00252,  0.00245) ( -0.00257,  0.00249) (  0.00067, -0.00065)
   0  26   61743.9    162.0   0.010744966   0.00453 ( -0.01111,  0.01127) ( -0.00273,  0.00277) ( -0.04585,  0.04654)
   0  27   62770.2    159.3   0.000000003   0.00000 (  0.00002,  0.00002) ( -0.00002, -0.00001) (  0.00001,  0.00001)
   0  28   62799.3    159.2   0.000001367   0.00000 (  0.00048,  0.00025) ( -0.00048, -0.00024) ( -0.00009, -0.00004)
   0  29   62800.2    159.2   0.000009252   0.00000 (  0.00030, -0.00036) (  0.00007, -0.00009) (  0.00125, -0.00148)
   0  30   65274.8    153.2   0.000000087   0.00000 ( -0.00003, -0.00002) ( -0.00017, -0.00010) ( -0.00001, -0.00001)
   0  31   65833.0    151.9   0.068460136   0.03080 ( -0.11655,  0.02831) ( -0.11967,  0.02906) (  0.03437, -0.00835)
   0  32   66959.1    149.3   0.017414897   0.00797 ( -0.06061, -0.01454) (  0.06117,  0.01467) (  0.01100,  0.00264)
   0  33   75498.3    132.5   0.000000000   0.00000 ( -0.00000, -0.00000) (  0.00000,  0.00000) (  0.00000,  0.00000)
   0  34   75503.3    132.4   0.000000241   0.00000 ( -0.00004,  0.00004) (  0.00000, -0.00000) ( -0.00024,  0.00025)
   0  35   75505.3    132.4   0.000000180   0.00000 ( -0.00014,  0.00013) ( -0.00017,  0.00016) (  0.00004, -0.00004)
   0  36   76540.6    130.6   0.000514393   0.00027 ( -0.01102, -0.00269) (  0.01134,  0.00276) (  0.00199,  0.00048)
   0  37   76548.4    130.6   0.000000004   0.00000 ( -0.00002, -0.00002) (  0.00002,  0.00002) (  0.00001,  0.00001)
   0  38   76553.7    130.6   0.000022947   0.00001 ( -0.00056,  0.00056) ( -0.00013,  0.00013) ( -0.00237,  0.00239)
   0  39   78112.8    128.0   0.026223081   0.01400 ( -0.07944, -0.01912) (  0.08196,  0.01973) (  0.01431,  0.00344)
   0  40   80077.2    124.9   0.000000410   0.00000 ( -0.00007, -0.00008) (  0.00028,  0.00030) (  0.00015,  0.00015)

-------------------------------------------------------------------------------------------------------
                                     SOC CORRECTED CD SPECTRUM*  
-------------------------------------------------------------------------------------------------------
   State    Energy  Wavelength      R               MX                    MY                    MZ  
            (cm-1)     (nm)      (1e40*sgs)         (au)                  (au)                  (au) 
-------------------------------------------------------------------------------------------------------
   0   1   11038.4    905.9     -0.00000 (  0.00233, -0.00235) ( -0.00240,  0.00242) ( -0.00042,  0.00043)
   0   2   11040.8    905.7      0.00000 ( -0.00272, -0.00068) ( -0.00062, -0.00015) ( -0.01147, -0.00286)
   0   3   11155.3    896.4      0.00012 ( -0.00000,  0.00000) (  0.00000, -0.00000) (  0.00000, -0.00000)
   0   4   15478.1    646.1     -0.00006 ( -0.25739, -0.26830) ( -0.26321, -0.27436) (  0.07530,  0.07849)
   0   5   20480.2    488.3     -0.00000 (  0.00050, -0.00049) ( -0.00052,  0.00051) ( -0.00009,  0.00009)
   0   6   20486.2    488.1     -0.00001 (  0.00372,  0.00085) (  0.00085,  0.00019) (  0.01568,  0.00359)
   0   7   20525.0    487.2      0.00009 ( -0.02297, -0.02486) ( -0.02350, -0.02543) (  0.00672,  0.00727)
   0   8   41449.8    241.3     -0.00005 (  0.00000, -0.00000) ( -0.00001,  0.00001) ( -0.00003,  0.00004)
   0   9   41509.8    240.9     -0.00003 ( -0.02134,  0.02145) (  0.02198, -0.02210) (  0.00387, -0.00389)
   0  10   41513.1    240.9      0.00001 (  0.00836,  0.00875) (  0.00855,  0.00895) ( -0.00244, -0.00256)
   0  11   45235.0    221.1      0.00002 (  0.00346,  0.00363) (  0.00354,  0.00371) ( -0.00102, -0.00107)
   0  12   45241.6    221.0      0.00002 ( -0.00432, -0.00104) ( -0.00099, -0.00024) ( -0.01819, -0.00439)
   0  13   45253.4    221.0     -0.00000 (  0.00000,  0.00000) (  0.00000,  0.00000) (  0.00001,  0.00000)
   0  14   49657.0    201.4      0.00382 ( -0.18555, -0.04468) ( -0.04234, -0.01020) ( -0.78207, -0.18834)
   0  15   50789.6    196.9     -0.06289 (  0.06200, -0.06253) ( -0.06331,  0.06386) ( -0.00935,  0.00943)
   0  16   50803.8    196.8      0.06545 ( -0.20300,  0.20407) (  0.20920, -0.21030) (  0.03741, -0.03760)
   0  17   59568.5    167.9      0.00001 ( -0.00003, -0.00010) ( -0.00001, -0.00003) ( -0.00013, -0.00046)
   0  18   59570.3    167.9     -0.00043 ( -0.00074, -0.00046) (  0.00015,  0.00009) ( -0.00503, -0.00316)
   0  19   59570.5    167.9     -0.00001 (  0.00134,  0.00149) (  0.00121,  0.00134) (  0.00108,  0.00119)
   0  20   59600.7    167.8      0.00001 (  0.00166, -0.00032) ( -0.00158,  0.00030) ( -0.00030,  0.00006)
   0  21   59605.3    167.8      0.00001 ( -0.00372, -0.00080) ( -0.00086, -0.00019) ( -0.01574, -0.00339)
   0  22   59608.7    167.8     -0.00001 ( -0.00002,  0.00000) ( -0.00005,  0.00001) ( -0.00024,  0.00005)
   0  23   61406.3    162.8     -0.00006 ( -0.00258, -0.00273) ( -0.00314, -0.00333) (  0.00079,  0.00083)
   0  24   61408.5    162.8      0.00040 ( -0.04307,  0.04281) (  0.04433, -0.04406) (  0.00781, -0.00776)
   0  25   61443.9    162.8      0.00008 ( -0.00009,  0.00009) (  0.00010, -0.00010) (  0.00001, -0.00001)
   0  26   61743.9    162.0     -0.01734 ( -0.14509,  0.14726) (  0.14935, -0.15159) (  0.02632, -0.02672)
   0  27   62770.2    159.3     -0.00015 ( -0.00710, -0.00603) ( -0.00730, -0.00620) (  0.00214,  0.00181)
   0  28   62799.3    159.2      0.00001 ( -0.00034, -0.00017) ( -0.00008, -0.00004) ( -0.00145, -0.00074)
   0  29   62800.2    159.2     -0.00002 ( -0.00313,  0.00371) (  0.00325, -0.00384) (  0.00057, -0.00067)
   0  30   65274.8    153.2     -0.21598 (  0.23719,  0.14029) (  0.24265,  0.14352) ( -0.06973, -0.04125)
   0  31   65833.0    151.9      0.21824 (  0.00027, -0.00006) ( -0.00105,  0.00025) ( -0.00030,  0.00007)
   0  32   66959.1    149.3     -0.00579 (  0.02322,  0.00557) (  0.00555,  0.00133) (  0.09647,  0.02314)
   0  33   75498.3    132.5     -0.00000 (  0.00056,  0.00058) (  0.00059,  0.00062) ( -0.00016, -0.00017)
   0  34   75503.3    132.4     -0.00001 (  0.00792, -0.00798) ( -0.00816,  0.00821) ( -0.00144,  0.00145)
   0  35   75505.3    132.4      0.00000 (  0.00005, -0.00005) ( -0.00005,  0.00005) (  0.00001, -0.00001)
   0  36   76540.6    130.6     -0.00004 ( -0.00462, -0.00113) ( -0.00107, -0.00026) ( -0.01955, -0.00476)
   0  37   76548.4    130.6      0.00000 ( -0.00027, -0.00028) ( -0.00025, -0.00026) (  0.00006,  0.00007)
   0  38   76553.7    130.6      0.00000 (  0.00078, -0.00079) ( -0.00080,  0.00081) ( -0.00014,  0.00014)
   0  39   78112.8    128.0      0.00786 ( -0.04317, -0.01039) ( -0.00994, -0.00239) ( -0.18241, -0.04390)
   0  40   80077.2    124.9      0.00140 (  0.00423,  0.00441) (  0.00433,  0.00451) ( -0.00142, -0.00148)

-------------------------------------------------------------------------------------------------------
                    SOC CORRECTED CD SPECTRUM VIA TRANSITION VELOCITY DIPOLE MOMENTS                   
-------------------------------------------------------------------------------------------------------
   State    Energy  Wavelengt      R               MX                    MY                    MZ  
            (cm-1)    (nm)     (1e40*sgs)         (au)                  (au)                  (au) 
-------------------------------------------------------------------------------------------------------
   0   1   11038.4    905.9     -0.00001 (  0.00233, -0.00235) ( -0.00240,  0.00242) ( -0.00042,  0.00043)
   0   2   11040.8    905.7     -0.00003 ( -0.00272, -0.00068) ( -0.00062, -0.00015) ( -0.01147, -0.00286)
   0   3   11155.3    896.4      0.00002 ( -0.00000,  0.00000) (  0.00000, -0.00000) (  0.00000, -0.00000)
   0   4   15478.1    646.1      0.00574 ( -0.25739, -0.26830) ( -0.26321, -0.27436) (  0.07530,  0.07849)
   0   5   20480.2    488.3      0.00000 (  0.00050, -0.00049) ( -0.00052,  0.00051) ( -0.00009,  0.00009)
   0   6   20486.2    488.1     -0.00002 (  0.00372,  0.00085) (  0.00085,  0.00019) (  0.01568,  0.00359)
   0   7   20525.0    487.2      0.00010 ( -0.02297, -0.02486) ( -0.02350, -0.02543) (  0.00672,  0.00727)
   0   8   41449.8    241.3     -0.00001 (  0.00000, -0.00000) ( -0.00001,  0.00001) ( -0.00003,  0.00004)
   0   9   41509.8    240.9      0.00001 ( -0.02134,  0.02145) (  0.02198, -0.02210) (  0.00387, -0.00389)
   0  10   41513.1    240.9     -0.00000 (  0.00836,  0.00875) (  0.00855,  0.00895) ( -0.00244, -0.00256)
   0  11   45235.0    221.1      0.00001 (  0.00346,  0.00363) (  0.00354,  0.00371) ( -0.00102, -0.00107)
   0  12   45241.6    221.0     -0.00004 ( -0.00432, -0.00104) ( -0.00099, -0.00024) ( -0.01819, -0.00439)
   0  13   45253.4    221.0     -0.00000 (  0.00000,  0.00000) (  0.00000,  0.00000) (  0.00001,  0.00000)
   0  14   49657.0    201.4     -0.02546 ( -0.18555, -0.04468) ( -0.04234, -0.01020) ( -0.78207, -0.18834)
   0  15   50789.6    196.9      0.11742 (  0.06200, -0.06253) ( -0.06331,  0.06386) ( -0.00935,  0.00943)
   0  16   50803.8    196.8     -0.10766 ( -0.20300,  0.20407) (  0.20920, -0.21030) (  0.03741, -0.03760)
   0  17   59568.5    167.9      0.00002 ( -0.00003, -0.00010) ( -0.00001, -0.00003) ( -0.00013, -0.00046)
   0  18   59570.3    167.9      0.00066 ( -0.00074, -0.00046) (  0.00015,  0.00009) ( -0.00503, -0.00316)
   0  19   59570.5    167.9     -0.00037 (  0.00134,  0.00149) (  0.00121,  0.00134) (  0.00108,  0.00119)
   0  20   59600.7    167.8      0.00001 (  0.00166, -0.00032) ( -0.00158,  0.00030) ( -0.00030,  0.00006)
   0  21   59605.3    167.8     -0.00005 ( -0.00372, -0.00080) ( -0.00086, -0.00019) ( -0.01574, -0.00339)
   0  22   59608.7    167.8     -0.00000 ( -0.00002,  0.00000) ( -0.00005,  0.00001) ( -0.00024,  0.00005)
   0  23   61406.3    162.8      0.00002 ( -0.00258, -0.00273) ( -0.00314, -0.00333) (  0.00079,  0.00083)
   0  24   61408.5    162.8     -0.00052 ( -0.04307,  0.04281) (  0.04433, -0.04406) (  0.00781, -0.00776)
   0  25   61443.9    162.8      0.00006 ( -0.00009,  0.00009) (  0.00010, -0.00010) (  0.00001, -0.00001)
   0  26   61743.9    162.0      0.01095 ( -0.14509,  0.14726) (  0.14935, -0.15159) (  0.02632, -0.02672)
   0  27   62770.2    159.3     -0.00002 ( -0.00710, -0.00603) ( -0.00730, -0.00620) (  0.00214,  0.00181)
   0  28   62799.3    159.2     -0.00001 ( -0.00034, -0.00017) ( -0.00008, -0.00004) ( -0.00145, -0.00074)
   0  29   62800.2    159.2      0.00001 ( -0.00313,  0.00371) (  0.00325, -0.00384) (  0.00057, -0.00067)
   0  30   65274.8    153.2      0.09950 (  0.23719,  0.14029) (  0.24265,  0.14352) ( -0.06973, -0.04125)
   0  31   65833.0    151.9     -0.13941 (  0.00027, -0.00006) ( -0.00105,  0.00025) ( -0.00030,  0.00007)
   0  32   66959.1    149.3      0.01020 (  0.02322,  0.00557) (  0.00555,  0.00133) (  0.09647,  0.02314)
   0  33   75498.3    132.5      0.00000 (  0.00056,  0.00058) (  0.00059,  0.00062) ( -0.00016, -0.00017)
   0  34   75503.3    132.4      0.00001 (  0.00792, -0.00798) ( -0.00816,  0.00821) ( -0.00144,  0.00145)
   0  35   75505.3    132.4     -0.00000 (  0.00005, -0.00005) ( -0.00005,  0.00005) (  0.00001, -0.00001)
   0  36   76540.6    130.6     -0.00005 ( -0.00462, -0.00113) ( -0.00107, -0.00026) ( -0.01955, -0.00476)
   0  37   76548.4    130.6     -0.00000 ( -0.00027, -0.00028) ( -0.00025, -0.00026) (  0.00006,  0.00007)
   0  38   76553.7    130.6      0.00002 (  0.00078, -0.00079) ( -0.00080,  0.00081) ( -0.00014,  0.00014)
   0  39   78112.8    128.0     -0.00696 ( -0.04317, -0.01039) ( -0.00994, -0.00239) ( -0.18241, -0.04390)
   0  40   80077.2    124.9     -0.00191 (  0.00423,  0.00441) (  0.00433,  0.00451) ( -0.00142, -0.00148)

*The complex numbers are printed as (real, imaginary)

The electronic components of the SOC ground state dipole moment in a.u. are:
           X                     Y                     Z
(  4.17985,  0.00000) (  4.27414, -0.00000) ( -1.22294,  0.00000)

Total run time:       59.929 sec

           *** ORCA-CIS/TD-DFT FINISHED WITHOUT ERROR ***

Maximum memory used throughout the entire CIS-calculation: 142.1 MB

---------------------------
SOC CIS/TD-DFT TOTAL ENERGY
---------------------------

    E(SCF)        =  -2439.508066660 Eh
    E(SOC CIS)    =      0.049817740 Eh (SOC Root  1)
    ----------------------------- ---------
    E(tot)        =  -2439.458248920 Eh


-------------------------   --------------------
FINAL SINGLE POINT ENERGY     -2439.458248920067
-------------------------   --------------------


                            ***************************************
                            *     ORCA property calculations      *
                            ***************************************

                                    ---------------------
                                    Active property flags
                                    ---------------------
   (+) Dipole Moment


------------------------------------------------------------------------------
                       ORCA ELECTRIC PROPERTIES CALCULATION
------------------------------------------------------------------------------

Dipole Moment Calculation                       ... on
Quadrupole Moment Calculation                   ... off
Polarizability Calculation                      ... off
GBWName                                         ... orca.gbw
Electron density                                ... orca.scfp
The origin for moment calculation is the CENTER OF MASS  = ( 9.394247,  8.785299  6.987273)

-------------
DIPOLE MOMENT
-------------
                                X             Y             Z
Electronic contribution:      4.17120       4.26530      -1.22041
Nuclear contribution   :     -4.60156      -4.70554       1.34627
                        -----------------------------------------
Total Dipole Moment    :     -0.43035      -0.44024       0.12586
                        -----------------------------------------
Magnitude (a.u.)       :      0.62838
Magnitude (Debye)      :      1.59721



--------------------
Rotational spectrum 
--------------------
 
Rotational constants in cm-1:     9.628434     0.410300     0.393531 
Rotational constants in MHz : 288653.186002 12300.499530 11797.756824 

 Dipole components along the rotational axes: 
x,y,z [a.u.] :     0.628379    -0.000028     0.000159 
x,y,z [Debye]:     1.597212    -0.000072     0.000405 

 

Timings for individual modules:

Sum of individual times         ...       94.675 sec (=   1.578 min)
GTO integral calculation        ...        0.743 sec (=   0.012 min)   0.8 %
SCF iterations                  ...       33.586 sec (=   0.560 min)  35.5 %
CIS module                      ...       60.346 sec (=   1.006 min)  63.7 %
                             ****ORCA TERMINATED NORMALLY****
TOTAL RUN TIME: 0 days 0 hours 1 minutes 35 seconds 539 msec
