
                                 *****************
                                 * O   R   C   A *
                                 *****************

                                            #,                                       
                                            ###                                      
                                            ####                                     
                                            #####                                    
                                            ######                                   
                                           ########,                                 
                                     ,,################,,,,,                         
                               ,,#################################,,                 
                          ,,##########################################,,             
                       ,#########################################, ''#####,          
                    ,#############################################,,   '####,        
                  ,##################################################,,,,####,       
                ,###########''''           ''''###############################       
              ,#####''   ,,,,##########,,,,          '''####'''          '####       
            ,##' ,,,,###########################,,,                        '##       
           ' ,,###''''                  '''############,,,                           
         ,,##''                                '''############,,,,        ,,,,,,###''
      ,#''                                            '''#######################'''  
     '                                                          ''''####''''         
             ,#######,   #######,   ,#######,      ##                                
            ,#'     '#,  ##    ##  ,#'     '#,    #''#        ######   ,####,        
            ##       ##  ##   ,#'  ##            #'  '#       #        #'  '#        
            ##       ##  #######   ##           ,######,      #####,   #    #        
            '#,     ,#'  ##    ##  '#,     ,#' ,#      #,         ##   #,  ,#        
             '#######'   ##     ##  '#######'  #'      '#     #####' # '####'        



                  #######################################################
                  #                        -***-                        #
                  #          Department of theory and spectroscopy      #
                  #    Directorship and core code : Frank Neese         #
                  #        Max Planck Institute fuer Kohlenforschung    #
                  #                Kaiser Wilhelm Platz 1               #
                  #                 D-45470 Muelheim/Ruhr               #
                  #                      Germany                        #
                  #                                                     #
                  #                  All rights reserved                #
                  #                        -***-                        #
                  #######################################################


                         Program Version 5.0.4 -  RELEASE  -


 With contributions from (in alphabetic order):
   Daniel Aravena         : Magnetic Suceptibility
   Michael Atanasov       : Ab Initio Ligand Field Theory (pilot matlab implementation)
   Alexander A. Auer      : GIAO ZORA, VPT2 properties, NMR spectrum
   Ute Becker             : Parallelization
   Giovanni Bistoni       : ED, misc. LED, open-shell LED, HFLD
   Martin Brehm           : Molecular dynamics
   Dmytro Bykov           : SCF Hessian
   Vijay G. Chilkuri      : MRCI spin determinant printing, contributions to CSF-ICE
   Dipayan Datta          : RHF DLPNO-CCSD density
   Achintya Kumar Dutta   : EOM-CC, STEOM-CC
   Dmitry Ganyushin       : Spin-Orbit,Spin-Spin,Magnetic field MRCI
   Miquel Garcia          : C-PCM and meta-GGA Hessian, CC/C-PCM, Gaussian charge scheme
   Yang Guo               : DLPNO-NEVPT2, F12-NEVPT2, CIM, IAO-localization
   Andreas Hansen         : Spin unrestricted coupled pair/coupled cluster methods
   Benjamin Helmich-Paris : MC-RPA, TRAH-SCF, COSX integrals
   Lee Huntington         : MR-EOM, pCC
   Robert Izsak           : Overlap fitted RIJCOSX, COSX-SCS-MP3, EOM
   Marcus Kettner         : VPT2
   Christian Kollmar      : KDIIS, OOCD, Brueckner-CCSD(T), CCSD density, CASPT2, CASPT2-K
   Simone Kossmann        : Meta GGA functionals, TD-DFT gradient, OOMP2, MP2 Hessian
   Martin Krupicka        : Initial AUTO-CI
   Lucas Lang             : DCDCAS
   Marvin Lechner         : AUTO-CI (C++ implementation), FIC-MRCC
   Dagmar Lenk            : GEPOL surface, SMD
   Dimitrios Liakos       : Extrapolation schemes; Compound Job, initial MDCI parallelization
   Dimitrios Manganas     : Further ROCIS development; embedding schemes
   Dimitrios Pantazis     : SARC Basis sets
   Anastasios Papadopoulos: AUTO-CI, single reference methods and gradients
   Taras Petrenko         : DFT Hessian,TD-DFT gradient, ASA, ECA, R-Raman, ABS, FL, XAS/XES, NRVS
   Peter Pinski           : DLPNO-MP2, DLPNO-MP2 Gradient
   Christoph Reimann      : Effective Core Potentials
   Marius Retegan         : Local ZFS, SOC
   Christoph Riplinger    : Optimizer, TS searches, QM/MM, DLPNO-CCSD(T), (RO)-DLPNO pert. Triples
   Tobias Risthaus        : Range-separated hybrids, TD-DFT gradient, RPA, STAB
   Michael Roemelt        : Original ROCIS implementation
   Masaaki Saitow         : Open-shell DLPNO-CCSD energy and density
   Barbara Sandhoefer     : DKH picture change effects
   Avijit Sen             : IP-ROCIS
   Kantharuban Sivalingam : CASSCF convergence, NEVPT2, FIC-MRCI
   Bernardo de Souza      : ESD, SOC TD-DFT
   Georgi Stoychev        : AutoAux, RI-MP2 NMR, DLPNO-MP2 response
   Willem Van den Heuvel  : Paramagnetic NMR
   Boris Wezisla          : Elementary symmetry handling
   Frank Wennmohs         : Technical directorship


 We gratefully acknowledge several colleagues who have allowed us to
 interface, adapt or use parts of their codes:
   Stefan Grimme, W. Hujo, H. Kruse, P. Pracht,  : VdW corrections, initial TS optimization,
                  C. Bannwarth, S. Ehlert          DFT functionals, gCP, sTDA/sTD-DF
   Ed Valeev, F. Pavosevic, A. Kumar             : LibInt (2-el integral package), F12 methods
   Garnet Chan, S. Sharma, J. Yang, R. Olivares  : DMRG
   Ulf Ekstrom                                   : XCFun DFT Library
   Mihaly Kallay                                 : mrcc  (arbitrary order and MRCC methods)
   Jiri Pittner, Ondrej Demel                    : Mk-CCSD
   Frank Weinhold                                : gennbo (NPA and NBO analysis)
   Christopher J. Cramer and Donald G. Truhlar   : smd solvation model
   Lars Goerigk                                  : TD-DFT with DH, B97 family of functionals
   V. Asgeirsson, H. Jonsson                     : NEB implementation
   FAccTs GmbH                                   : IRC, NEB, NEB-TS, DLPNO-Multilevel, CI-OPT
                                                   MM, QMMM, 2- and 3-layer-ONIOM, Crystal-QMMM,
                                                   LR-CPCM, SF, NACMEs, symmetry and pop. for TD-DFT,
                                                   nearIR, NL-DFT gradient (VV10), updates on ESD,
                                                   ML-optimized integration grids
   S Lehtola, MJT Oliveira, MAL Marques          : LibXC Library
   Liviu Ungur et al                             : ANISO software


 Your calculation uses the libint2 library for the computation of 2-el integrals
 For citations please refer to: http://libint.valeyev.net

 Your ORCA version has been built with support for libXC version: 5.1.0
 For citations please refer to: https://tddft.org/programs/libxc/

 This ORCA versions uses:
   CBLAS   interface :  Fast vector & matrix operations
   LAPACKE interface :  Fast linear algebra routines
   SCALAPACK package :  Parallel linear algebra routines
   Shared memory     :  Shared parallel matrices
   BLAS/LAPACK       :  OpenBLAS 0.3.15  USE64BITINT DYNAMIC_ARCH NO_AFFINITY SkylakeX SINGLE_THREADED
        Core in use  :  SkylakeX
   Copyright (c) 2011-2014, The OpenBLAS Project


Reading of a custom orbital basis requested
Basis file: ../../../basis_orca
READING GTO-BASIS: HYDROGEN
READING GTO-BASIS: CARBON
READING GTO-BASIS: OXYGEN
READING GTO-BASIS: FLUORINE
READING GTO-BASIS: SULFUR
READING GTO-BASIS: CHLORINE
READING GTO-BASIS: SELENIUM
READING GTO-BASIS: BROMINE
READING GTO-BASIS: TELLURIUM
READING GTO-BASIS: IODINE
Basis read successfully!

================================================================================

----- Orbital basis set information -----
Basis read from file: ../../../basis_orca

================================================================================
                                        WARNINGS
                       Please study these warnings very carefully!
================================================================================

INFO   : Checking CIS options ...

WARNING: (CIS/TDDFT): Spin-orbit needs TRIPLETS set to TRUE
  ===> : ajusting flags

WARNING: CIS/ROCIS methods need fully converged wavefunctions
  ===> : Setting SCFConvForced true
         You can overwrite this default with %scf ConvForced false 


INFO   : the flag for use of the SHARK integral package has been found!

================================================================================
                                       INPUT FILE
================================================================================
NAME = orca.inp
|  1> !PBE0 nososcf NoRI
|  2> %SCF Guess HCore
|  3>      DIISMaxIt -1
|  4> end
|  5> %TDDFT NROOTS 10
|  6>        DOSOC TRUE
|  7> end
|  8> %basis
|  9>         GTOName "../../../basis_orca"
| 10> end
| 11> * xyz  0 1 
| 12>   F         3.2935082407        3.9999999965        3.9999999964
| 13>   F         4.7064917593        4.0000000035        4.0000000036
| 14> *
| 15> 
| 16>                          ****END OF INPUT****
================================================================================

                       ****************************
                       * Single Point Calculation *
                       ****************************

---------------------------------
CARTESIAN COORDINATES (ANGSTROEM)
---------------------------------
  F      3.293508    4.000000    4.000000
  F      4.706492    4.000000    4.000000

----------------------------
CARTESIAN COORDINATES (A.U.)
----------------------------
  NO LB      ZA    FRAG     MASS         X           Y           Z
   0 F     9.0000    0    18.998    6.223829    7.558905    7.558905
   1 F     9.0000    0    18.998    8.893980    7.558905    7.558905

--------------------------------
INTERNAL COORDINATES (ANGSTROEM)
--------------------------------
 F      0   0   0     0.000000000000     0.00000000     0.00000000
 F      1   0   0     1.412983518600     0.00000000     0.00000000

---------------------------
INTERNAL COORDINATES (A.U.)
---------------------------
 F      0   0   0     0.000000000000     0.00000000     0.00000000
 F      1   0   0     2.670151881898     0.00000000     0.00000000

---------------------
BASIS SET INFORMATION
---------------------
There are 1 groups of distinct atoms

 Group   1 Type F   : 10s6p2d1f contracted to 5s3p2d1f pattern {52111/411/11/1}

Atom   0F    basis set group =>   1
Atom   1F    basis set group =>   1
------------------------------------------------------------------------------
                           ORCA GTO INTEGRAL CALCULATION
------------------------------------------------------------------------------
------------------------------------------------------------------------------
                   ___                                                        
                  /   \      - P O W E R E D   B Y -                         
                 /     \                                                     
                 |  |  |   _    _      __       _____    __    __             
                 |  |  |  | |  | |    /  \     |  _  \  |  |  /  |          
                  \  \/   | |  | |   /    \    | | | |  |  | /  /          
                 / \  \   | |__| |  /  /\  \   | |_| |  |  |/  /          
                |  |  |   |  __  | /  /__\  \  |    /   |      \           
                |  |  |   | |  | | |   __   |  |    \   |  |\   \          
                \     /   | |  | | |  |  |  |  | |\  \  |  | \   \       
                 \___/    |_|  |_| |__|  |__|  |_| \__\ |__|  \__/        
                                                                              
                      - O R C A' S   B I G   F R I E N D -                    
                                      &                                       
                       - I N T E G R A L  F E E D E R -                       
                                                                              
 v1 FN, 2020, v2 2021                                                         
------------------------------------------------------------------------------


Reading SHARK input file orca.SHARKINP.tmp ... ok
----------------------
SHARK INTEGRAL PACKAGE
----------------------

Number of atoms                             ...      2
Number of basis functions                   ...     62
Number of shells                            ...     22
Maximum angular momentum                    ...      3
Integral batch strategy                     ... SHARK/LIBINT Hybrid
RI-J (if used) integral strategy            ... SPLIT-RIJ (Revised 2003 algorithm where possible)
Printlevel                                  ...      1
Contraction scheme used                     ... SEGMENTED contraction
Coulomb Range Separation                    ... NOT USED
Exchange Range Separation                   ... NOT USED
Finite Nucleus Model                        ... NOT USED
Auxiliary Coulomb fitting basis             ... NOT available
Auxiliary J/K fitting basis                 ... NOT available
Auxiliary Correlation fitting basis         ... NOT available
Auxiliary 'external' fitting basis          ... NOT available
Integral threshold                          ...     1.000000e-10
Primitive cut-off                           ...     1.000000e-11
Primitive pair pre-selection threshold      ...     1.000000e-11

Calculating pre-screening integrals         ... done (  0.0 sec) Dimension = 22
Organizing shell pair data                  ... done (  0.0 sec)
Shell pair information
Total number of shell pairs                 ...       253
Shell pairs after pre-screening             ...       249
Total number of primitive shell pairs       ...       775
Primitive shell pairs kept                  ...       678
          la=0 lb=0:     51 shell pairs
          la=1 lb=0:     60 shell pairs
          la=1 lb=1:     21 shell pairs
          la=2 lb=0:     40 shell pairs
          la=2 lb=1:     24 shell pairs
          la=2 lb=2:     10 shell pairs
          la=3 lb=0:     20 shell pairs
          la=3 lb=1:     12 shell pairs
          la=3 lb=2:      8 shell pairs
          la=3 lb=3:      3 shell pairs

Calculating one electron integrals          ... done (  0.0 sec)
Calculating Nuclear repulsion               ... done (  0.0 sec) ENN=     30.335353037075 Eh

SHARK setup successfully completed in   0.1 seconds

Maximum memory used throughout the entire GTOINT-calculation: 11.8 MB
-------------------------------------------------------------------------------
                                 ORCA SCF
-------------------------------------------------------------------------------

------------
SCF SETTINGS
------------
Hamiltonian:
 Density Functional     Method          .... DFT(GTOs)
 Exchange Functional    Exchange        .... PBE
   PBE kappa parameter   XKappa         ....  0.804000
   PBE mue parameter    XMuePBE         ....  0.219520
 Correlation Functional Correlation     .... PBE
   PBE beta parameter  CBetaPBE         ....  0.066725
 LDA part of GGA corr.  LDAOpt          .... PW91-LDA
 Gradients option       PostSCFGGA      .... off
 Hybrid DFT is turned on
   Fraction HF Exchange ScalHFX         ....  0.250000
   Scaling of DF-GGA-X  ScalDFX         ....  0.750000
   Scaling of DF-GGA-C  ScalDFC         ....  1.000000
   Scaling of DF-LDA-C  ScalLDAC        ....  1.000000
   Perturbative correction              ....  0.000000
   Density functional embedding theory  .... OFF
   NL short-range parameter             ....  6.900000


General Settings:
 Integral files         IntName         .... orca
 Hartree-Fock type      HFTyp           .... RHF
 Total Charge           Charge          ....    0
 Multiplicity           Mult            ....    1
 Number of Electrons    NEL             ....   18
 Basis Dimension        Dim             ....   62
 Nuclear Repulsion      ENuc            ....     30.3353530371 Eh

Convergence Acceleration:
 DIIS                   CNVDIIS         .... on
   Start iteration      DIISMaxIt       ....    -1
   Startup error        DIISStart       ....  0.200000
   # of expansion vecs  DIISMaxEq       ....     5
   Bias factor          DIISBfac        ....   1.050
   Max. coefficient     DIISMaxC        ....  10.000
 Trust-Rad. Augm. Hess. CNVTRAH         .... auto
   Auto Start mean grad. ratio tolernc. ....  1.125000
   Auto Start start iteration           ....    20
   Auto Start num. interpolation iter.  ....    10
   Max. Number of Micro iterations      ....    16
   Max. Number of Macro iterations      .... Maxiter - #DIIS iter
   Number of Davidson start vectors     ....     2
   Converg. threshold I  (grad. norm)   ....   5.000e-05
   Converg. threshold II (energy diff.) ....   1.000e-06
   Grad. Scal. Fac. for Micro threshold ....   0.100
   Minimum threshold for Micro iter.    ....   0.010
   NR start threshold (gradient norm)   ....   0.001
   Initial trust radius                 ....   0.400
   Minimum AH scaling param. (alpha)    ....   1.000
   Maximum AH scaling param. (alpha)    .... 1000.000
   Orbital update algorithm             .... Taylor
   White noise on init. David. guess    .... on
   Maximum white noise                  ....   0.010
   Quad. conv. algorithm                .... NR
 SOSCF                  CNVSOSCF        .... off
 Level Shifting         CNVShift        .... on
   Level shift para.    LevelShift      ....    0.2500
   Turn off err/grad.   ShiftErr        ....    0.0010
 Zerner damping         CNVZerner       .... off
 Static damping         CNVDamp         .... on
   Fraction old density DampFac         ....    0.7000
   Max. Damping (<1)    DampMax         ....    0.9800
   Min. Damping (>=0)   DampMin         ....    0.0000
   Turn off err/grad.   DampErr         ....    0.1000
 Fernandez-Rico         CNVRico         .... off

SCF Procedure:
 Maximum # iterations   MaxIter         ....   125
 SCF integral mode      SCFMode         .... Direct
   Integral package                     .... SHARK and LIBINT hybrid scheme
 Reset frequency        DirectResetFreq ....    20
 Integral Threshold     Thresh          ....  1.000e-10 Eh
 Primitive CutOff       TCut            ....  1.000e-11 Eh

Convergence Tolerance:
 Convergence Check Mode ConvCheckMode   .... Total+1el-Energy
 Convergence forced     ConvForced      .... 1
 Energy Change          TolE            ....  1.000e-06 Eh
 1-El. energy change                    ....  1.000e-03 Eh
 DIIS Error             TolErr          ....  1.000e-06


Diagonalization of the overlap matrix:
Smallest eigenvalue                        ... 1.042e-02
Time for diagonalization                   ...    0.001 sec
Threshold for overlap eigenvalues          ... 1.000e-08
Number of eigenvalues below threshold      ... 0
Time for construction of square roots      ...    0.002 sec
Total time needed                          ...    0.003 sec

--------------------
INITIAL GUESS: HCORE
--------------------
                      -----------------
                      INTIAL GUESS DONE 
                      -----------------
-------------------
DFT GRID GENERATION
-------------------

General Integration Accuracy     IntAcc      ... 4.388
Radial Grid Type                 RadialGrid  ... OptM3 with GC (2021)
Angular Grid (max. ang.)         AngularGrid ... 4 (Lebedev-302)
Angular grid pruning method      GridPruning ... 4 (adaptive)
Weight generation scheme         WeightScheme... Becke
Basis function cutoff            BFCut       ... 1.0000e-10
Integration weight cutoff        WCut        ... 1.0000e-14
Angular grids for H and He will be reduced by one unit
Partially contracted basis set               ... off
Rotationally invariant grid construction     ... off

Total number of grid points                  ...    12264
Total number of batches                      ...      192
Average number of points per batch           ...       63
Average number of grid points per atom       ...     6132
Time for grid setup =    0.063 sec

--------------
SCF ITERATIONS
--------------
ITER       Energy         Delta-E        Max-DP      RMS-DP      [F,P]     Damp
               ***  Starting incremental Fock matrix formation  ***
  0   -180.0524624714   0.000000000000 0.69169367  0.03857655  2.8834805 0.7000
  1   -187.7159473062  -7.663484834775 0.40912114  0.01990877  1.7571583 0.7000
                               ***Turning on DIIS***
  2   -191.2843935226  -3.568446216337 0.22718461  0.01418543  1.0673142 0.7000
  3   -193.7136730854  -2.429279562811 0.15960420  0.01060221  0.6629426 0.7000
  4   -195.4219375304  -1.708264445064 0.11191678  0.00746517  0.4533899 0.7000
  5   -196.6174113807  -1.195473850247 0.07616603  0.00514351  0.3148875 0.7000
  6   -197.4542995309  -0.836888150227 0.05322215  0.00355634  0.2188935 0.7000
  7   -198.0393856839  -0.585086153007 0.03724391  0.00246122  0.1523087 0.7000
  8   -198.4484898747  -0.409104190744 0.02589314  0.00172040  0.1056050 0.7000
  9   -198.7345289711  -0.286039096439 0.06026339  0.00401953  0.0736021 0.0000
 10   -199.4011803234  -0.666651352267 0.00120175  0.00006585  0.0017974 0.0000
 11   -199.4011840460  -0.000003722654 0.00030284  0.00001704  0.0009703 0.0000
 12   -199.4011853140  -0.000001268013 0.00000515  0.00000034  0.0000102 0.0000
                 **** Energy Check signals convergence ****

               *****************************************************
               *                     SUCCESS                       *
               *           SCF CONVERGED AFTER  13 CYCLES          *
               *****************************************************


----------------
TOTAL SCF ENERGY
----------------

Total Energy       :         -199.40118531 Eh           -5425.98210 eV

Components:
Nuclear Repulsion  :           30.33535304 Eh             825.46692 eV
Electronic Energy  :         -229.73653835 Eh           -6251.44903 eV
One Electron Energy:         -338.58331730 Eh           -9213.32046 eV
Two Electron Energy:          108.84677895 Eh            2961.87143 eV

Virial components:
Potential Energy   :         -398.26036220 Eh          -10837.21541 eV
Kinetic Energy     :          198.85917688 Eh            5411.23330 eV
Virial Ratio       :            2.00272559


DFT components:
N(Alpha)           :        8.999993093908 electrons
N(Beta)            :        8.999993093908 electrons
N(Total)           :       17.999986187816 electrons
E(X)               :      -14.976214322613 Eh       
E(C)               :       -0.614677658310 Eh       
E(XC)              :      -15.590891980923 Eh       
DFET-embed. en.    :        0.000000000000 Eh       

---------------
SCF CONVERGENCE
---------------

  Last Energy change         ...   -2.6890e-10  Tolerance :   1.0000e-06
  Last MAX-Density change    ...    1.6075e-06  Tolerance :   1.0000e-05
  Last RMS-Density change    ...    7.3440e-08  Tolerance :   1.0000e-06
  Last DIIS Error            ...    2.6956e-06  Tolerance :   1.0000e-06

             **** THE GBW FILE WAS UPDATED (orca.gbw) ****
             **** DENSITY orca.scfp WAS UPDATED ****
             **** ENERGY FILE WAS UPDATED (orca.en.tmp) ****
             **** THE GBW FILE WAS UPDATED (orca.gbw) ****
             **** DENSITY orca.scfp WAS UPDATED ****
----------------
ORBITAL ENERGIES
----------------

  NO   OCC          E(Eh)            E(eV) 
   0   2.0000     -24.880829      -677.0418 
   1   2.0000     -24.880785      -677.0406 
   2   2.0000      -1.382531       -37.6206 
   3   2.0000      -1.140843       -31.0439 
   4   2.0000      -0.619673       -16.8622 
   5   2.0000      -0.561370       -15.2757 
   6   2.0000      -0.561370       -15.2757 
   7   2.0000      -0.431721       -11.7477 
   8   2.0000      -0.431721       -11.7477 
   9   0.0000      -0.144051        -3.9198 
  10   0.0000       0.455004        12.3813 
  11   0.0000       0.509611        13.8672 
  12   0.0000       0.509611        13.8672 
  13   0.0000       0.603385        16.4189 
  14   0.0000       0.625553        17.0222 
  15   0.0000       0.625553        17.0222 
  16   0.0000       0.812824        22.1181 
  17   0.0000       1.343352        36.5545 
  18   0.0000       1.653338        44.9896 
  19   0.0000       1.653338        44.9896 
  20   0.0000       1.885591        51.3095 
  21   0.0000       1.885594        51.3096 
  22   0.0000       2.056085        55.9489 
  23   0.0000       2.096741        57.0552 
  24   0.0000       2.096744        57.0553 
  25   0.0000       2.523126        68.6578 
  26   0.0000       2.523126        68.6578 
  27   0.0000       2.626681        71.4756 
  28   0.0000       3.092218        84.1435 
  29   0.0000       3.092218        84.1435 
  30   0.0000       3.107823        84.5682 
  31   0.0000       3.314988        90.2054 
  32   0.0000       3.314988        90.2054 
  33   0.0000       4.353888       118.4753 
  34   0.0000       5.335780       145.1940 
  35   0.0000       5.980401       162.7350 
  36   0.0000       6.688792       182.0113 
  37   0.0000       6.688792       182.0113 
  38   0.0000       6.735586       183.2846 
  39   0.0000       6.939415       188.8311 
  40   0.0000       6.939416       188.8311 
  41   0.0000       7.083824       192.7606 
  42   0.0000       7.083824       192.7606 
  43   0.0000       7.105577       193.3526 
  44   0.0000       7.105577       193.3526 
  45   0.0000       7.174349       195.2240 
  46   0.0000       7.174351       195.2240 
  47   0.0000       7.480355       203.5508 
  48   0.0000       7.480355       203.5508 
  49   0.0000       7.920935       215.5396 
  50   0.0000       8.354529       227.3383 
  51   0.0000       8.354529       227.3383 
  52   0.0000       8.385972       228.1939 
  53   0.0000       8.385994       228.1945 
  54   0.0000       8.531852       232.1635 
  55   0.0000       8.531870       232.1640 
  56   0.0000       8.913717       242.5546 
  57   0.0000       9.015058       245.3122 
  58   0.0000       9.015058       245.3122 
  59   0.0000      10.134751       275.7806 
  60   0.0000      77.045109      2096.5040 
  61   0.0000      77.900122      2119.7701 

                    ********************************
                    * MULLIKEN POPULATION ANALYSIS *
                    ********************************

-----------------------
MULLIKEN ATOMIC CHARGES
-----------------------
   0 F :    0.000000
   1 F :   -0.000000
Sum of atomic charges:   -0.0000000

--------------------------------
MULLIKEN REDUCED ORBITAL CHARGES
--------------------------------
  0 F s       :     3.974356  s :     3.974356
      pz      :     1.995773  p :     5.007082
      px      :     1.015536
      py      :     1.995773
      dz2     :     0.002394  d :     0.017670
      dxz     :     0.004048
      dyz     :     0.000000
      dx2y2   :     0.007181
      dxy     :     0.004048
      f0      :     0.000067  f :     0.000892
      f+1     :     0.000200
      f-1     :     0.000011
      f+2     :     0.000112
      f-2     :     0.000000
      f+3     :     0.000333
      f-3     :     0.000168
  1 F s       :     3.974356  s :     3.974356
      pz      :     1.995773  p :     5.007082
      px      :     1.015536
      py      :     1.995773
      dz2     :     0.002394  d :     0.017670
      dxz     :     0.004048
      dyz     :     0.000000
      dx2y2   :     0.007181
      dxy     :     0.004048
      f0      :     0.000067  f :     0.000892
      f+1     :     0.000200
      f-1     :     0.000011
      f+2     :     0.000112
      f-2     :     0.000000
      f+3     :     0.000333
      f-3     :     0.000168


                     *******************************
                     * LOEWDIN POPULATION ANALYSIS *
                     *******************************

----------------------
LOEWDIN ATOMIC CHARGES
----------------------
   0 F :    0.000000
   1 F :   -0.000000

-------------------------------
LOEWDIN REDUCED ORBITAL CHARGES
-------------------------------
  0 F s       :     3.864138  s :     3.864138
      pz      :     1.991283  p :     5.092361
      px      :     1.109794
      py      :     1.991283
      dz2     :     0.006185  d :     0.041304
      dxz     :     0.008281
      dyz     :     0.000000
      dx2y2   :     0.018556
      dxy     :     0.008281
      f0      :     0.000163  f :     0.002197
      f+1     :     0.000498
      f-1     :     0.000027
      f+2     :     0.000272
      f-2     :     0.000000
      f+3     :     0.000830
      f-3     :     0.000408
  1 F s       :     3.864138  s :     3.864138
      pz      :     1.991283  p :     5.092361
      px      :     1.109794
      py      :     1.991283
      dz2     :     0.006185  d :     0.041304
      dxz     :     0.008281
      dyz     :     0.000000
      dx2y2   :     0.018556
      dxy     :     0.008281
      f0      :     0.000163  f :     0.002197
      f+1     :     0.000498
      f-1     :     0.000027
      f+2     :     0.000272
      f-2     :     0.000000
      f+3     :     0.000830
      f-3     :     0.000408


                      *****************************
                      * MAYER POPULATION ANALYSIS *
                      *****************************

  NA   - Mulliken gross atomic population
  ZA   - Total nuclear charge
  QA   - Mulliken gross atomic charge
  VA   - Mayer's total valence
  BVA  - Mayer's bonded valence
  FA   - Mayer's free valence

  ATOM       NA         ZA         QA         VA         BVA        FA
  0 F      9.0000     9.0000     0.0000     0.9485     0.9485    -0.0000
  1 F      9.0000     9.0000    -0.0000     0.9485     0.9485    -0.0000

  Mayer bond orders larger than 0.100000
B(  0-F ,  1-F ) :   0.9485 

-------
TIMINGS
-------

Total SCF time: 0 days 0 hours 0 min 43 sec 

Total time                  ....      43.641 sec
Sum of individual times     ....       2.164 sec  (  5.0%)

Fock matrix formation       ....       2.082 sec  (  4.8%)
  XC integration            ....       0.866 sec  ( 41.6% of F)
    Basis function eval.    ....       0.307 sec  ( 35.5% of XC)
    Density eval.           ....       0.127 sec  ( 14.7% of XC)
    XC-Functional eval.     ....       0.167 sec  ( 19.3% of XC)
    XC-Potential eval.      ....       0.203 sec  ( 23.5% of XC)
Diagonalization             ....       0.009 sec  (  0.0%)
Density matrix formation    ....       0.000 sec  (  0.0%)
Population analysis         ....       0.003 sec  (  0.0%)
Initial guess               ....       0.001 sec  (  0.0%)
Orbital Transformation      ....       0.000 sec  (  0.0%)
Orbital Orthonormalization  ....       0.000 sec  (  0.0%)
DIIS solution               ....       0.005 sec  (  0.0%)
Grid generation             ....       0.063 sec  (  0.1%)

Maximum memory used throughout the entire SCF-calculation: 231.2 MB
------------------------------------------------------------------------------
                        ORCA TD-DFT/TDA CALCULATION
------------------------------------------------------------------------------

Input orbitals are from        ... orca.gbw
CI-vector output               ... orca.cis
Tamm-Dancoff approximation     ... operative
CIS-Integral strategy          ... AO-integrals
Integral handling              ... AO integral Direct
Max. core memory used          ... 512 MB
Reference state                ... RHF
Generation of triplets         ... on
Follow IRoot                   ... off
Number of operators            ... 1
Orbital ranges used for CIS calculation:
 Operator 0:  Orbitals   2...  8  to   9... 61
XAS localization array:
 Operator 0:  Orbitals  -1... -1

-------------------
XC-INTEGRATION GRID
-------------------

General Integration Accuracy     IntAcc      ... 3.467
Radial Grid Type                 RadialGrid  ... OptM3 with GC (2021)
Angular Grid (max. ang.)         AngularGrid ... 1 (Lebedev-50)
Angular grid pruning method      GridPruning ... 4 (adaptive)
Weight generation scheme         WeightScheme... Becke
Basis function cutoff            BFCut       ... 1.0000e-10
Integration weight cutoff        WCut        ... 1.0000e-14
Angular grids for H and He will be reduced by one unit
Partially contracted basis set               ... off
Rotationally invariant grid construction     ... off

Total number of grid points                  ...     1928
Total number of batches                      ...       32
Average number of points per batch           ...       60
Average number of grid points per atom       ...      964

---------------
TD-DFT XC SETUP
---------------

DFT calculation                         ... on
Name of the grid file                   ... orca.grid_cis.tmp
Exchange functional (TD-DFT)            ... PBE
   PBE kappa parameter  XKappa (TD-DFT) ...  0.804000
   PBE mue parameter   XMuePBE (TD-DFT) ...  0.219520
Correlation functional (TD-DFT)         ... PBE
   PBE beta parameter CBetaPBE (TD-DFT) ...  0.066725
 LDA part of GGA corr.  LDAOpt (TD-DFT) ... PW91-LDA
Hybrid DFT                              ... on
   Exchange mixing (TD-DFT)             ...  0.250
   GGA exch. scaling (TD-DFT)           ...  0.750
   GGA corr. scaling (TD-DFT)           ...  1.000

Building densities             ... done
Calculating rho(r) on the grid ... done
Building xc-kernel on the grid ... done
                    *** TD-DFT CALCULATION INITIALIZED ***

------------------------
DAVIDSON-DIAGONALIZATION
------------------------

Dimension of the eigenvalue problem            ...    371
Number of roots to be determined               ...     10
Maximum size of the expansion space            ...    100
Maximum number of iterations                   ...    100
Convergence tolerance for the residual         ...    1.000e-06
Convergence tolerance for the energies         ...    1.000e-06
Orthogonality tolerance                        ...    1.000e-14
Level Shift                                    ...    0.000e+00
Constructing the preconditioner                ... o.k.
Building the initial guess                     ... o.k.
Number of trial vectors determined             ...    100


                       ****Iteration    0****

   Memory handling for direct AO based CIS:
   Memory per vector needed      ...     1 MB
   Memory needed                 ...     2 MB
   Memory available              ...   512 MB
   Number of vectors per batch   ...   512
   Number of batches             ...     1
   Time for densities:            0.001
   SHARK[1a]
   Time for J+K (Direct):         0.509
   Time for XC-Integration:       0.127
   Time for Sigma-Completion:     0.002
   Size of expansion space: 30
   Lowest Energy          :     0.168166679598
   Maximum Energy change  :     0.845840034260 (vector 9)
   Maximum residual norm  :     0.043197592242

                       ****Iteration    1****
   Time for densities:            0.000
   SHARK[1a]
   Time for J+K (Direct):         0.253
   Time for XC-Integration:       0.050
   Time for Sigma-Completion:     0.001
   Size of expansion space: 40
   Lowest Energy          :     0.165639717271
   Maximum Energy change  :     0.028203714512 (vector 4)
   Maximum residual norm  :     0.000462495760

                       ****Iteration    2****
   Time for densities:            0.000
   SHARK[1a]
   Time for J+K (Direct):         0.255
   Time for XC-Integration:       0.050
   Time for Sigma-Completion:     0.001
   Size of expansion space: 50
   Lowest Energy          :     0.165632822111
   Maximum Energy change  :     0.000146179237 (vector 4)
   Maximum residual norm  :     0.000002180773

                       ****Iteration    3****
   Time for densities:            0.000
   SHARK[1a]
   Time for J+K (Direct):         0.253
   Time for XC-Integration:       0.050
   Time for Sigma-Completion:     0.001
   Size of expansion space: 60
   Lowest Energy          :     0.165632816897
   Maximum Energy change  :     0.000001006401 (vector 4)
   Maximum residual norm  :     0.000000010611

      *** CONVERGENCE OF RESIDUAL NORM REACHED ***

Storing the converged CI vectors               ... orca.cis1

                 *** DAVIDSON DONE ***

Total time for solving the CIS problem:     3.742sec

------------------------------------
TD-DFT/TDA EXCITED STATES (SINGLETS)
------------------------------------

the weight of the individual excitations are printed if larger than 1.0e-02

STATE  1:  E=   0.165633 au      4.507 eV    36352.2 cm**-1 <S**2> =   0.000000
     8a ->   9a  :     0.997782 (c=  0.99889029)

STATE  2:  E=   0.165633 au      4.507 eV    36352.2 cm**-1 <S**2> =   0.000000
     7a ->   9a  :     0.997782 (c=  0.99889029)

STATE  3:  E=   0.294916 au      8.025 eV    64726.6 cm**-1 <S**2> =   0.000000
     6a ->   9a  :     0.997147 (c= -0.99857250)

STATE  4:  E=   0.294916 au      8.025 eV    64726.6 cm**-1 <S**2> =   0.000000
     5a ->   9a  :     0.997147 (c=  0.99857250)

STATE  5:  E=   0.570000 au     15.510 eV   125100.6 cm**-1 <S**2> =   0.000000
     4a ->   9a  :     0.815521 (c= -0.90306197)
     4a ->  10a  :     0.011757 (c=  0.10842771)
     7a ->  12a  :     0.072467 (c= -0.26919785)
     8a ->  11a  :     0.072468 (c= -0.26919788)

STATE  6:  E=   0.801353 au     21.806 eV   175876.8 cm**-1 <S**2> =   0.000000
     8a ->  10a  :     0.989835 (c= -0.99490460)

STATE  7:  E=   0.801353 au     21.806 eV   175876.8 cm**-1 <S**2> =   0.000000
     7a ->  10a  :     0.989835 (c= -0.99490460)

STATE  8:  E=   0.840998 au     22.885 eV   184577.8 cm**-1 <S**2> =   0.000000
     7a ->  11a  :     0.495705 (c= -0.70406338)
     8a ->  12a  :     0.495705 (c=  0.70406334)

STATE  9:  E=   0.843429 au     22.951 eV   185111.4 cm**-1 <S**2> =   0.000000
     7a ->  11a  :     0.458315 (c=  0.67698978)
     7a ->  12a  :     0.037809 (c=  0.19444458)
     8a ->  11a  :     0.037808 (c= -0.19444156)
     8a ->  12a  :     0.458315 (c=  0.67698977)

STATE 10:  E=   0.843457 au     22.952 eV   185117.4 cm**-1 <S**2> =   0.000000
     7a ->  11a  :     0.037809 (c=  0.19444626)
     7a ->  12a  :     0.458330 (c= -0.67700096)
     8a ->  11a  :     0.458330 (c=  0.67700081)
     8a ->  12a  :     0.037809 (c=  0.19444626)


                  ********************************
                  * Entering triplet calculation *
                  ********************************

------------------------
DAVIDSON-DIAGONALIZATION
------------------------

Dimension of the eigenvalue problem            ...    371
Number of roots to be determined               ...     10
Maximum size of the expansion space            ...    100
Maximum number of iterations                   ...    100
Convergence tolerance for the residual         ...    1.000e-06
Convergence tolerance for the energies         ...    1.000e-06
Orthogonality tolerance                        ...    1.000e-14
Level Shift                                    ...    0.000e+00
Constructing the preconditioner                ... o.k.
Building the initial guess                     ... o.k.
Number of trial vectors determined             ...    100


                       ****Iteration    0****
                <<< Triplet sigma vectors requested >>>

   Memory handling for direct AO based CIS:
   Memory per vector needed      ...     1 MB
   Memory needed                 ...     1 MB
   Memory available              ...   512 MB
   Number of vectors per batch   ...   512
   Number of batches             ...     1
   Time for densities:            0.001
   SHARK[2G] - ScalHFX=    0.250 ScalHFX_loc=    1.000 facx=    1.000
   Time for K (Direct):           0.405
   Time for XC-Integration:       0.126
   Time for Sigma-Completion:     0.002
   Size of expansion space: 30
   Lowest Energy          :     0.109199337661
   Maximum Energy change  :     0.822422868902 (vector 9)
   Maximum residual norm  :     0.014268412499

                       ****Iteration    1****
   Time for densities:            0.000
   SHARK[2G] - ScalHFX=    0.250 ScalHFX_loc=    1.000 facx=    1.000
   Time for K (Direct):           0.217
   Time for XC-Integration:       0.049
   Time for Sigma-Completion:     0.001
   Size of expansion space: 40
   Lowest Energy          :     0.106669886723
   Maximum Energy change  :     0.010266697363 (vector 8)
   Maximum residual norm  :     0.000135814636

                       ****Iteration    2****
   Time for densities:            0.000
   SHARK[2G] - ScalHFX=    0.250 ScalHFX_loc=    1.000 facx=    1.000
   Time for K (Direct):           0.217
   Time for XC-Integration:       0.050
   Time for Sigma-Completion:     0.001
   Size of expansion space: 50
   Lowest Energy          :     0.106669410735
   Maximum Energy change  :     0.000113405749 (vector 7)
   Maximum residual norm  :     0.000007624484

                       ****Iteration    3****
   Time for densities:            0.000
   SHARK[2G] - ScalHFX=    0.250 ScalHFX_loc=    1.000 facx=    1.000
   Time for K (Direct):           0.217
   Time for XC-Integration:       0.049
   Time for Sigma-Completion:     0.001
   Size of expansion space: 60
   Lowest Energy          :     0.106669410410
   Maximum Energy change  :     0.000002333335 (vector 7)
   Maximum residual norm  :     0.000000046189

      *** CONVERGENCE OF RESIDUAL NORM REACHED ***

Storing the converged CI vectors               ... orca.cis3

                 *** DAVIDSON DONE ***

------------------------------------
TD-DFT/TDA EXCITED STATES (TRIPLETS)
------------------------------------

the weight of the individual excitations are printed if larger than 1.0e-02

STATE  1:  E=   0.106669 au      2.903 eV    23411.2 cm**-1 <S**2> =   2.000000
     8a ->   9a  :     0.994387 (c= -0.99718958)

STATE  2:  E=   0.106669 au      2.903 eV    23411.2 cm**-1 <S**2> =   2.000000
     7a ->   9a  :     0.994387 (c= -0.99718958)

STATE  3:  E=   0.240536 au      6.545 eV    52791.6 cm**-1 <S**2> =   2.000000
     5a ->   9a  :     0.014799 (c=  0.12165099)
     6a ->   9a  :     0.981199 (c= -0.99055469)

STATE  4:  E=   0.240536 au      6.545 eV    52791.6 cm**-1 <S**2> =   2.000000
     5a ->   9a  :     0.981199 (c= -0.99055469)
     6a ->   9a  :     0.014799 (c= -0.12165099)

STATE  5:  E=   0.256585 au      6.982 eV    56313.9 cm**-1 <S**2> =   2.000000
     4a ->   9a  :     0.992545 (c=  0.99626564)

STATE  6:  E=   0.785780 au     21.382 eV   172458.7 cm**-1 <S**2> =   2.000000
     5a ->  13a  :     0.013945 (c= -0.11808821)
     8a ->  10a  :     0.978878 (c= -0.98938264)

STATE  7:  E=   0.785780 au     21.382 eV   172458.7 cm**-1 <S**2> =   2.000000
     6a ->  13a  :     0.013945 (c= -0.11808821)
     7a ->  10a  :     0.978878 (c= -0.98938264)

STATE  8:  E=   0.798571 au     21.730 eV   175266.0 cm**-1 <S**2> =   2.000000
     5a ->  14a  :     0.016134 (c=  0.12701907)
     6a ->  15a  :     0.016134 (c=  0.12702080)
     7a ->  12a  :     0.476915 (c=  0.69059021)
     8a ->  11a  :     0.476912 (c=  0.69058811)

STATE  9:  E=   0.801255 au     21.803 eV   175855.2 cm**-1 <S**2> =   2.000000
     3a ->   9a  :     0.971313 (c=  0.98555223)

STATE 10:  E=   0.817886 au     22.256 eV   179505.2 cm**-1 <S**2> =   2.000000
     5a ->  15a  :     0.010929 (c= -0.10454156)
     6a ->  14a  :     0.010926 (c= -0.10452598)
     7a ->  11a  :     0.440104 (c= -0.66340367)
     7a ->  12a  :     0.048656 (c= -0.22058036)
     8a ->  11a  :     0.048657 (c=  0.22058247)
     8a ->  12a  :     0.440130 (c= -0.66342329)

------------------------------
TD-DFT/TDA SPIN-ORBIT COUPLING
------------------------------

Calculating the spin-orbit integrals:             

Loading the effective charges         ... done
Entering the SOC calc. section        ... 
------------------------------------------------------------------------------
                         ORCA SPIN-ORBIT COUPLING CALCULATION
------------------------------------------------------------------------------

GBW file                                    ... orca.gbw
Input density                               ... orca.cisp0
Output integrals                            ... orca.cis
Operator type                               ... Mean-field/Effective potential
   One-Electron Terms                       ... 1
   Coulomb Contribution                     ... 4
   Exchange Contribution                    ... 3
   Correlation Contribution                 ... 0
   Maximum number of centers                ... 4
SHARK 1-electron  MaxCenter=4               ... done (  0.0 sec)
Evaluating Coulomb term analytically        ... 
SHARK 2-electron DoJ,X=1,1 MaxCenter=4      ... done (  1.5 sec)
Transforming the SOC integrals              ... done
Constructing the SOC matrix:                ... done
Diagonalizing the SOC matrix:               ... done

      --------------------------------------------------------------------------------
                      CALCULATED SOCME BETWEEN TRIPLETS AND SINGLETS                  
      --------------------------------------------------------------------------------
           Root                          <T|HSO|S>  (Re, Im) cm-1                     
         T      S             Z                     X                     Y           
      --------------------------------------------------------------------------------
         1      0    (   0.00 ,    0.00 )    (   0.00 ,    0.00 )    (  -0.00 ,   -0.00 )
         1      1    (   0.00 ,    0.00 )    (   0.00 ,    6.07 )    (  -0.00 ,   -0.00 )
         1      2    (   0.00 ,   -0.00 )    (   0.00 , -152.33 )    (  -0.00 ,    0.00 )
         1      3    (   0.00 ,   -0.00 )    (   0.00 ,   -0.00 )    (  -0.00 ,    0.00 )
         1      4    (   0.00 ,   -0.00 )    (   0.00 ,    0.00 )    (  -0.00 ,   -0.00 )
         1      5    (   0.00 ,   13.86 )    (   0.00 ,   -0.00 )    (  -0.00 , -149.93 )
         1      6    (   0.00 ,    0.00 )    (   0.00 ,   -0.08 )    (  -0.00 ,    0.00 )
         1      7    (   0.00 ,    0.00 )    (   0.00 ,    2.51 )    (  -0.00 ,   -0.00 )
         1      8    (   0.00 ,   66.59 )    (   0.00 ,   -0.00 )    (  -0.00 ,    6.16 )
         1      9    (   0.00 ,   68.37 )    (   0.00 ,   -0.00 )    (  -0.00 ,   -6.32 )
         1     10    (   0.00 ,    6.32 )    (   0.00 ,    0.00 )    (  -0.00 ,   68.39 )
         2      0    (   0.00 ,   -0.00 )    (   0.00 ,   -0.00 )    (  -0.00 ,   -0.00 )
         2      1    (   0.00 ,    0.00 )    (   0.00 ,  152.33 )    (  -0.00 ,   -0.00 )
         2      2    (   0.00 ,    0.00 )    (   0.00 ,    6.07 )    (  -0.00 ,   -0.00 )
         2      3    (   0.00 ,   -0.00 )    (   0.00 ,    0.00 )    (  -0.00 ,   -0.00 )
         2      4    (   0.00 ,   -0.00 )    (   0.00 ,   -0.00 )    (  -0.00 ,    0.00 )
         2      5    (   0.00 , -149.93 )    (   0.00 ,    0.00 )    (  -0.00 ,  -13.86 )
         2      6    (   0.00 ,   -0.00 )    (   0.00 ,   -2.51 )    (  -0.00 ,    0.00 )
         2      7    (   0.00 ,    0.00 )    (   0.00 ,   -0.08 )    (  -0.00 ,   -0.00 )
         2      8    (   0.00 ,    6.16 )    (   0.00 ,   -0.00 )    (  -0.00 ,  -66.59 )
         2      9    (   0.00 ,    6.32 )    (   0.00 ,    0.00 )    (  -0.00 ,   68.37 )
         2     10    (   0.00 ,  -68.39 )    (   0.00 ,    0.00 )    (  -0.00 ,    6.32 )
         3      0    (   0.00 , -208.74 )    (   0.00 ,    0.00 )    (  -0.00 ,   -2.00 )
         3      1    (   0.00 ,   -0.00 )    (   0.00 ,   -0.00 )    (  -0.00 ,    0.00 )
         3      2    (   0.00 ,    0.00 )    (   0.00 ,    0.00 )    (  -0.00 ,    0.00 )
         3      3    (   0.00 ,   -0.00 )    (   0.00 ,  -11.56 )    (  -0.00 ,    0.00 )
         3      4    (   0.00 ,    0.00 )    (   0.00 ,  126.25 )    (  -0.00 ,   -0.00 )
         3      5    (   0.00 ,    0.00 )    (   0.00 ,   -0.00 )    (  -0.00 ,    0.00 )
         3      6    (   0.00 ,    0.00 )    (   0.00 ,   -0.00 )    (  -0.00 ,   -0.00 )
         3      7    (   0.00 ,   -0.00 )    (   0.00 ,   -0.00 )    (  -0.00 ,    0.00 )
         3      8    (   0.00 ,   -0.00 )    (   0.00 ,    0.00 )    (  -0.00 ,    0.00 )
         3      9    (   0.00 ,   -0.00 )    (   0.00 ,   -0.00 )    (  -0.00 ,   -0.00 )
         3     10    (   0.00 ,    0.00 )    (   0.00 ,   -0.00 )    (  -0.00 ,   -0.00 )
         4      0    (   0.00 ,    2.00 )    (   0.00 ,   -0.00 )    (  -0.00 , -208.74 )
         4      1    (   0.00 ,   -0.00 )    (   0.00 ,   -0.00 )    (  -0.00 ,    0.00 )
         4      2    (   0.00 ,    0.00 )    (   0.00 ,    0.00 )    (  -0.00 ,   -0.00 )
         4      3    (   0.00 ,    0.00 )    (   0.00 ,  126.25 )    (  -0.00 ,   -0.00 )
         4      4    (   0.00 ,    0.00 )    (   0.00 ,   11.56 )    (  -0.00 ,   -0.00 )
         4      5    (   0.00 ,   -0.00 )    (   0.00 ,    0.00 )    (  -0.00 ,    0.00 )
         4      6    (   0.00 ,    0.00 )    (   0.00 ,   -0.00 )    (  -0.00 ,    0.00 )
         4      7    (   0.00 ,   -0.00 )    (   0.00 ,    0.00 )    (  -0.00 ,   -0.00 )
         4      8    (   0.00 ,   -0.00 )    (   0.00 ,    0.00 )    (  -0.00 ,    0.00 )
         4      9    (   0.00 ,   -0.00 )    (   0.00 ,    0.00 )    (  -0.00 ,   -0.00 )
         4     10    (   0.00 ,    0.00 )    (   0.00 ,   -0.00 )    (  -0.00 ,   -0.00 )
         5      0    (   0.00 ,    0.00 )    (   0.00 ,    0.00 )    (  -0.00 ,    0.00 )
         5      1    (   0.00 ,  -17.42 )    (   0.00 ,    0.00 )    (  -0.00 ,  131.21 )
         5      2    (   0.00 ,  131.21 )    (   0.00 ,   -0.00 )    (  -0.00 ,   17.42 )
         5      3    (   0.00 ,    0.00 )    (   0.00 ,   -0.00 )    (  -0.00 ,    0.00 )
         5      4    (   0.00 ,    0.00 )    (   0.00 ,   -0.00 )    (  -0.00 ,   -0.00 )
         5      5    (   0.00 ,   -0.00 )    (   0.00 ,   -0.00 )    (  -0.00 ,    0.00 )
         5      6    (   0.00 ,    0.36 )    (   0.00 ,   -0.00 )    (  -0.00 ,   -2.96 )
         5      7    (   0.00 ,   -2.96 )    (   0.00 ,    0.00 )    (  -0.00 ,   -0.36 )
         5      8    (   0.00 ,    0.00 )    (   0.00 ,    1.19 )    (  -0.00 ,   -0.00 )
         5      9    (   0.00 ,   -0.00 )    (   0.00 ,   -0.00 )    (  -0.00 ,    0.00 )
         5     10    (   0.00 ,   -0.00 )    (   0.00 ,   -0.00 )    (  -0.00 ,   -0.00 )
         6      0    (   0.00 ,    0.00 )    (   0.00 ,    0.00 )    (  -0.00 ,   -0.00 )
         6      1    (   0.00 ,    0.00 )    (   0.00 ,    0.00 )    (  -0.00 ,   -0.00 )
         6      2    (   0.00 ,   -0.00 )    (   0.00 ,    2.63 )    (  -0.00 ,   -0.00 )
         6      3    (   0.00 ,    0.00 )    (   0.00 ,   -0.00 )    (  -0.00 ,   -0.00 )
         6      4    (   0.00 ,    0.00 )    (   0.00 ,    0.00 )    (  -0.00 ,   -0.00 )
         6      5    (   0.00 ,   -0.08 )    (   0.00 ,   -0.00 )    (  -0.00 ,    0.61 )
         6      6    (   0.00 ,    0.00 )    (   0.00 ,    1.60 )    (  -0.00 ,   -0.00 )
         6      7    (   0.00 ,    0.00 )    (   0.00 ,  151.88 )    (  -0.00 ,   -0.00 )
         6      8    (   0.00 ,   25.85 )    (   0.00 ,   -0.00 )    (  -0.00 ,    3.47 )
         6      9    (   0.00 ,   33.52 )    (   0.00 ,   -0.00 )    (  -0.00 ,   -4.49 )
         6     10    (   0.00 ,    4.50 )    (   0.00 ,    0.00 )    (  -0.00 ,   33.52 )
         7      0    (   0.00 ,   -0.00 )    (   0.00 ,   -0.00 )    (  -0.00 ,   -0.00 )
         7      1    (   0.00 ,   -0.00 )    (   0.00 ,   -2.63 )    (  -0.00 ,    0.00 )
         7      2    (   0.00 ,    0.00 )    (   0.00 ,    0.00 )    (  -0.00 ,   -0.00 )
         7      3    (   0.00 ,   -0.00 )    (   0.00 ,   -0.00 )    (  -0.00 ,   -0.00 )
         7      4    (   0.00 ,   -0.00 )    (   0.00 ,   -0.00 )    (  -0.00 ,    0.00 )
         7      5    (   0.00 ,    0.61 )    (   0.00 ,   -0.00 )    (  -0.00 ,    0.08 )
         7      6    (   0.00 ,   -0.00 )    (   0.00 , -151.88 )    (  -0.00 ,    0.00 )
         7      7    (   0.00 ,   -0.00 )    (   0.00 ,    1.60 )    (  -0.00 ,   -0.00 )
         7      8    (   0.00 ,    3.47 )    (   0.00 ,   -0.00 )    (  -0.00 ,  -25.85 )
         7      9    (   0.00 ,    4.50 )    (   0.00 ,    0.00 )    (  -0.00 ,   33.52 )
         7     10    (   0.00 ,  -33.52 )    (   0.00 ,    0.00 )    (  -0.00 ,    4.50 )
         8      0    (   0.00 ,   -0.00 )    (   0.00 ,   -0.00 )    (  -0.00 ,   -0.00 )
         8      1    (   0.00 ,   -9.14 )    (   0.00 ,    0.00 )    (  -0.00 ,   68.85 )
         8      2    (   0.00 ,   68.85 )    (   0.00 ,   -0.00 )    (  -0.00 ,    9.14 )
         8      3    (   0.00 ,   -0.00 )    (   0.00 ,   -0.00 )    (  -0.00 ,   -0.00 )
         8      4    (   0.00 ,   -0.00 )    (   0.00 ,   -0.00 )    (  -0.00 ,    0.00 )
         8      5    (   0.00 ,    0.00 )    (   0.00 ,    0.00 )    (  -0.00 ,    0.00 )
         8      6    (   0.00 ,    2.66 )    (   0.00 ,   -0.00 )    (  -0.00 ,  -21.59 )
         8      7    (   0.00 ,  -21.59 )    (   0.00 ,    0.00 )    (  -0.00 ,   -2.66 )
         8      8    (   0.00 ,   -0.00 )    (   0.00 ,  -93.63 )    (  -0.00 ,    0.00 )
         8      9    (   0.00 ,    0.00 )    (   0.00 ,   -0.00 )    (  -0.00 ,   -0.00 )
         8     10    (   0.00 ,    0.00 )    (   0.00 ,    0.00 )    (  -0.00 ,    0.00 )
         9      0    (   0.00 ,    0.00 )    (   0.00 ,    0.00 )    (  -0.00 ,    0.00 )
         9      1    (   0.00 ,    0.00 )    (   0.00 ,   -0.00 )    (  -0.00 ,   -0.00 )
         9      2    (   0.00 ,   -0.00 )    (   0.00 ,    0.00 )    (  -0.00 ,   -0.00 )
         9      3    (   0.00 ,  -21.67 )    (   0.00 ,    0.00 )    (  -0.00 ,   -2.19 )
         9      4    (   0.00 ,   -2.19 )    (   0.00 ,    0.00 )    (  -0.00 ,   21.67 )
         9      5    (   0.00 ,    0.00 )    (   0.00 ,   -0.00 )    (  -0.00 ,    0.00 )
         9      6    (   0.00 ,   -0.00 )    (   0.00 ,    0.00 )    (  -0.00 ,    0.00 )
         9      7    (   0.00 ,    0.00 )    (   0.00 ,    0.00 )    (  -0.00 ,    0.00 )
         9      8    (   0.00 ,    0.00 )    (   0.00 ,    0.00 )    (  -0.00 ,    0.00 )
         9      9    (   0.00 ,   -0.00 )    (   0.00 ,    0.00 )    (  -0.00 ,   -0.00 )
         9     10    (   0.00 ,    0.00 )    (   0.00 ,   -0.00 )    (  -0.00 ,   -0.00 )
        10      0    (   0.00 ,    0.00 )    (   0.00 ,    0.00 )    (  -0.00 ,    0.00 )
        10      1    (   0.00 ,  -66.69 )    (   0.00 ,    0.00 )    (  -0.00 ,   11.68 )
        10      2    (   0.00 ,  -11.68 )    (   0.00 ,   -0.00 )    (  -0.00 ,  -66.69 )
        10      3    (   0.00 ,   -0.00 )    (   0.00 ,   -0.00 )    (  -0.00 ,   -0.00 )
        10      4    (   0.00 ,    0.00 )    (   0.00 ,   -0.00 )    (  -0.00 ,   -0.00 )
        10      5    (   0.00 ,   -0.00 )    (   0.00 ,    0.00 )    (  -0.00 ,   -0.00 )
        10      6    (   0.00 ,   30.32 )    (   0.00 ,   -0.00 )    (  -0.00 ,   -5.02 )
        10      7    (   0.00 ,    5.02 )    (   0.00 ,    0.00 )    (  -0.00 ,   30.31 )
        10      8    (   0.00 ,   -0.00 )    (   0.00 ,    0.00 )    (  -0.00 ,    0.00 )
        10      9    (   0.00 ,    0.00 )    (   0.00 ,    8.61 )    (  -0.00 ,   -0.00 )
        10     10    (   0.00 ,    0.00 )    (   0.00 ,  208.05 )    (  -0.00 ,   -0.00 )

SOC stabilization of the ground state:  -1.6469 cm-1
Eigenvalues of the SOC matrix:

   State:        cm-1         eV
     0:          0.00         0.0000
     1:      23260.31         2.8839
     2:      23260.37         2.8839
     3:      23410.49         2.9025
     4:      23410.49         2.9025
     5:      23564.12         2.9216
     6:      23564.88         2.9217
     7:      36354.68         4.5074
     8:      36354.68         4.5074
     9:      52666.46         6.5298
    10:      52666.46         6.5298
    11:      52791.92         6.5454
    12:      52791.92         6.5454
    13:      52920.07         6.5613
    14:      52921.72         6.5615
    15:      56316.68         6.9824
    16:      56317.02         6.9824
    17:      56317.02         6.9824
    18:      64729.56         8.0254
    19:      64729.56         8.0254
    20:     125102.67        15.5108
    21:     172308.35        21.3635
    22:     172308.56        21.3635
    23:     172453.08        21.3815
    24:     172453.08        21.3815
    25:     172610.97        21.4010
    26:     172612.05        21.4012
    27:     175267.51        21.7304
    28:     175267.51        21.7304
    29:     175267.70        21.7304
    30:     175856.84        21.8035
    31:     175856.84        21.8035
    32:     175856.84        21.8035
    33:     175885.52        21.8070
    34:     175885.52        21.8070
    35:     179499.38        22.2551
    36:     179507.25        22.2561
    37:     179507.25        22.2561
    38:     184580.60        22.8851
    39:     185113.26        22.9511
    40:     185126.94        22.9528

The threshold for printing is 0.0100
Eigenvectors of the SOC matrix:

             E(cm-1)  Weight      Real         Imag     : Root  Spin  Ms
 STATE  0:      0.00
                      0.99997     -0.10821     -0.99411 : 0     0     0
 STATE  1:  23260.31
                      0.49113      0.70081      0.00000 : 2     1     0
                      0.24557     -0.00000      0.49555 : 1     1    -1
                      0.24557     -0.00000      0.49555 : 1     1     1
 STATE  2:  23260.37
                      0.49113      0.70081     -0.00000 : 1     1     0
                      0.24557     -0.00000     -0.49555 : 2     1    -1
                      0.24557     -0.00000     -0.49555 : 2     1     1
 STATE  3:  23410.49
                      0.45564     -0.00000      0.67501 : 1     1    -1
                      0.04428      0.00000     -0.21044 : 2     1    -1
                      0.45564      0.00000     -0.67501 : 1     1     1
                      0.04428     -0.00000      0.21044 : 2     1     1
 STATE  4:  23410.49
                      0.04428     -0.00000     -0.21044 : 1     1    -1
                      0.45564      0.00000     -0.67501 : 2     1    -1
                      0.04428      0.00000      0.21044 : 1     1     1
                      0.45564     -0.00000      0.67501 : 2     1     1
 STATE  5:  23564.12
                      0.49575     -0.70409     -0.00000 : 1     1     0
                      0.24787      0.00000     -0.49787 : 2     1    -1
                      0.24787      0.00000     -0.49787 : 2     1     1
 STATE  6:  23564.88
                      0.49576      0.70410      0.00000 : 2     1     0
                      0.24788      0.00000     -0.49788 : 1     1    -1
                      0.24788      0.00000     -0.49788 : 1     1     1
 STATE  7:  36354.68
                      0.97931     -0.98960     -0.00000 : 1     0     0
                      0.02051      0.14321     -0.00000 : 2     0     0
 STATE  8:  36354.68
                      0.02051     -0.14321     -0.00000 : 1     0     0
                      0.97931     -0.98960     -0.00000 : 2     0     0
 STATE  9:  52666.46
                      0.49708     -0.70427     -0.03289 : 3     1     0
                      0.24854      0.02325     -0.49800 : 4     1    -1
                      0.24854      0.02325     -0.49800 : 4     1     1
 STATE 10:  52666.46
                      0.49708     -0.15331      0.68817 : 4     1     0
                      0.24854      0.48661      0.10841 : 3     1    -1
                      0.24854      0.48661      0.10841 : 3     1     1
 STATE 11:  52791.92
                      0.49994      0.13776      0.69352 : 3     1    -1
                      0.49994     -0.13776     -0.69352 : 3     1     1
 STATE 12:  52791.92
                      0.49994      0.00128     -0.70707 : 4     1    -1
                      0.49994     -0.00128      0.70707 : 4     1     1
 STATE 13:  52920.07
                      0.49995     -0.51373     -0.48583 : 4     1     0
                      0.24998      0.34354     -0.36326 : 3     1    -1
                      0.24998      0.34354     -0.36326 : 3     1     1
 STATE 14:  52921.72
                      0.49994     -0.33198      0.62428 : 3     1     0
                      0.24997      0.44144      0.23474 : 4     1    -1
                      0.24997      0.44144      0.23474 : 4     1     1
 STATE 15:  56316.68
                      0.49998      0.70710     -0.00001 : 5     1    -1
                      0.49998     -0.70710      0.00001 : 5     1     1
 STATE 16:  56317.02
                      0.26472      0.00000     -0.51451 : 5     1     0
                      0.36761      0.60631      0.00000 : 5     1    -1
                      0.36761      0.60631      0.00000 : 5     1     1
 STATE 17:  56317.02
                      0.73521      0.00000      0.85745 : 5     1     0
                      0.13236      0.36382     -0.00000 : 5     1    -1
                      0.13236      0.36382      0.00000 : 5     1     1
 STATE 18:  64729.56
                      0.99989     -0.99673     -0.08008 : 3     0     0
 STATE 19:  64729.56
                      0.99989     -0.87603     -0.48214 : 4     0     0
 STATE 20: 125102.67
                      1.00000      0.00001     -1.00000 : 5     0     0
 STATE 21: 172308.35
                      0.01512      0.12295      0.00000 : 6     1     0
                      0.48486     -0.69632     -0.00000 : 7     1     0
                      0.24243      0.00000     -0.49237 : 6     1    -1
                      0.24243      0.00000     -0.49237 : 6     1     1
 STATE 22: 172308.56
                      0.48488     -0.69633      0.00004 : 6     1     0
                      0.01512     -0.12295      0.00001 : 7     1     0
                      0.24244      0.00002      0.49238 : 7     1    -1
                      0.24244      0.00002      0.49238 : 7     1     1
 STATE 23: 172453.08
                      0.39585     -0.00000      0.62917 : 6     1    -1
                      0.10307      0.00000     -0.32105 : 7     1    -1
                      0.39585      0.00000     -0.62917 : 6     1     1
                      0.10307     -0.00000      0.32105 : 7     1     1
 STATE 24: 172453.08
                      0.10307     -0.00000     -0.32105 : 6     1    -1
                      0.39585      0.00000     -0.62917 : 7     1    -1
                      0.10307      0.00000      0.32105 : 6     1     1
                      0.39585     -0.00000      0.62917 : 7     1     1
 STATE 25: 172610.97
                      0.49098      0.70070      0.00000 : 6     1     0
                      0.24549     -0.00000      0.49547 : 7     1    -1
                      0.24549     -0.00000      0.49547 : 7     1     1
 STATE 26: 172612.05
                      0.49117      0.70083      0.00002 : 7     1     0
                      0.24558      0.00001     -0.49556 : 6     1    -1
                      0.24558      0.00001     -0.49556 : 6     1     1
 STATE 27: 175267.51
                      0.51775      0.00000      0.71955 : 8     1     0
                      0.24050     -0.49041     -0.00000 : 8     1    -1
                      0.24050     -0.49041     -0.00000 : 8     1     1
 STATE 28: 175267.51
                      0.48101     -0.00000     -0.69355 : 8     1     0
                      0.25888     -0.50880     -0.00000 : 8     1    -1
                      0.25888     -0.50880     -0.00000 : 8     1     1
 STATE 29: 175267.70
                      0.49977      0.70694     -0.00034 : 8     1    -1
                      0.49977     -0.70694      0.00034 : 8     1     1
 STATE 30: 175856.84
                      0.50000      0.00697      0.70707 : 9     1    -1
                      0.50000     -0.00697     -0.70707 : 9     1     1
 STATE 31: 175856.84
                      0.49722     -0.00817     -0.70509 : 9     1    -1
                      0.49722     -0.00817     -0.70509 : 9     1     1
 STATE 32: 175856.84
                      0.99444     -0.06194      0.99529 : 9     1     0
 STATE 33: 175885.52
                      0.58081     -0.76211      0.00000 : 6     0     0
                      0.41613     -0.64508      0.00000 : 7     0     0
 STATE 34: 175885.52
                      0.41613     -0.64508      0.00000 : 6     0     0
                      0.58081      0.76211      0.00000 : 7     0     0
 STATE 35: 179499.38
                      0.49930     -0.70661     -0.00000 : 10     1    -1
                      0.49930      0.70661      0.00000 : 10     1     1
 STATE 36: 179507.25
                      0.18237      0.00000     -0.42705 : 10     1     0
                      0.40877      0.63935      0.00000 : 10     1    -1
                      0.40877      0.63935      0.00000 : 10     1     1
 STATE 37: 179507.25
                      0.81754     -0.00000     -0.90418 : 10     1     0
                      0.09118     -0.30197      0.00000 : 10     1    -1
                      0.09118     -0.30197      0.00000 : 10     1     1
 STATE 38: 184580.60
                      0.99989      0.00000      0.99994 : 8     0     0
 STATE 39: 185113.26
                      0.99944      0.00000     -0.99972 : 9     0     0
 STATE 40: 185126.94
                      0.99808     -0.00000      0.99904 : 10     0     0

-----------------------------
TD-DFT/TDA-EXCITATION SPECTRA
-----------------------------

Center of mass = (  7.5589,  7.5589,  7.5589)
Calculating the Dipole integrals                  ... done
Transforming integrals                            ... done
Calculating the Linear Momentum integrals         ... done
Transforming integrals                            ... done
Calculating angular momentum integrals            ... done
Transforming integrals                            ... done

-----------------------------------------------------------------------------
         ABSORPTION SPECTRUM VIA TRANSITION ELECTRIC DIPOLE MOMENTS
-----------------------------------------------------------------------------
State   Energy    Wavelength  fosc         T2        TX        TY        TZ  
        (cm-1)      (nm)                 (au**2)    (au)      (au)      (au) 
-----------------------------------------------------------------------------
   1   36352.2    275.1   0.000000166   0.00000   0.00000  -0.00016   0.00122
   2   36352.2    275.1   0.000000166   0.00000   0.00000   0.00122   0.00016
   3   64726.6    154.5   0.000000000   0.00000   0.00000   0.00000   0.00000
   4   64726.6    154.5   0.000000000   0.00000  -0.00000   0.00000  -0.00000
   5  125100.6     79.9   1.103598810   2.90421  -1.70417  -0.00000  -0.00000
   6  175876.8     56.9   0.042914440   0.08033   0.00000   0.03471  -0.28129
   7  175876.8     56.9   0.042914440   0.08033   0.00000  -0.28129  -0.03471
   8  184577.8     54.2   0.000000000   0.00000   0.00000   0.00000   0.00000
   9  185111.4     54.0   0.000000000   0.00000  -0.00000  -0.00000  -0.00000
  10  185117.4     54.0   0.000000000   0.00000   0.00000   0.00000  -0.00000
  11   23411.2    427.1   spin forbidden (mult=3)
  12   23411.2    427.1   spin forbidden (mult=3)
  13   52791.6    189.4   spin forbidden (mult=3)
  14   52791.6    189.4   spin forbidden (mult=3)
  15   56313.9    177.6   spin forbidden (mult=3)
  16  172458.7     58.0   spin forbidden (mult=3)
  17  172458.7     58.0   spin forbidden (mult=3)
  18  175266.0     57.1   spin forbidden (mult=3)
  19  175855.2     56.9   spin forbidden (mult=3)
  20  179505.2     55.7   spin forbidden (mult=3)

-----------------------------------------------------------------------------
         ABSORPTION SPECTRUM VIA TRANSITION VELOCITY DIPOLE MOMENTS
-----------------------------------------------------------------------------
State   Energy    Wavelength   fosc        P2         PX        PY        PZ  
        (cm-1)      (nm)                 (au**2)     (au)      (au)      (au) 
-----------------------------------------------------------------------------
   1   36352.2    275.1   0.019491174   0.00484  -0.00000  -0.00916   0.06898
   2   36352.2    275.1   0.019491174   0.00484  -0.00000   0.06898   0.00916
   3   64726.6    154.5   0.000000000   0.00000  -0.00000   0.00000   0.00000
   4   64726.6    154.5   0.000000000   0.00000   0.00000   0.00000  -0.00000
   5  125100.6     79.9   0.323417286   0.27652   0.52585   0.00000   0.00000
   6  175876.8     56.9   0.024101286   0.02897  -0.00000  -0.02084   0.16893
   7  175876.8     56.9   0.024101286   0.02897  -0.00000   0.16893   0.02084
   8  184577.8     54.2   0.000000000   0.00000  -0.00001  -0.00000  -0.00000
   9  185111.4     54.0   0.000000000   0.00000   0.00001   0.00000  -0.00000
  10  185117.4     54.0   0.000000000   0.00000  -0.00000   0.00000   0.00000
  11   23411.2    427.1   spin forbidden (mult=3)
  12   23411.2    427.1   spin forbidden (mult=3)
  13   52791.6    189.4   spin forbidden (mult=3)
  14   52791.6    189.4   spin forbidden (mult=3)
  15   56313.9    177.6   spin forbidden (mult=3)
  16  172458.7     58.0   spin forbidden (mult=3)
  17  172458.7     58.0   spin forbidden (mult=3)
  18  175266.0     57.1   spin forbidden (mult=3)
  19  175855.2     56.9   spin forbidden (mult=3)
  20  179505.2     55.7   spin forbidden (mult=3)

-------------------------------------------------------------------
                             CD SPECTRUM
-------------------------------------------------------------------
State  Energy     Wavelength     R         MX        MY        MZ   
       (cm-1)       (nm)     (1e40*cgs)   (au)      (au)      (au)  
-------------------------------------------------------------------
   1   36352.2    275.1     -0.00000  -0.00000  -0.00000  -0.00000
   2   36352.2    275.1      0.00000   0.00000  -0.00000   0.00000
   3   64726.6    154.5     -0.00000   0.00000   0.04886  -0.48269
   4   64726.6    154.5      0.00000   0.00000  -0.48269  -0.04886
   5  125100.6     79.9      0.00000  -0.00000  -0.00000   0.00000
   6  175876.8     56.9      0.00000  -0.00000  -0.00000  -0.00000
   7  175876.8     56.9     -0.00000   0.00000  -0.00000   0.00000
   8  184577.8     54.2      0.00000  -0.00000   0.00000   0.00000
   9  185111.4     54.0      0.00000  -0.00000   0.00000  -0.00000
  10  185117.4     54.0      0.00000   0.00000   0.00000   0.00000
  11   23411.2    427.1 spin forbidden
  12   23411.2    427.1 spin forbidden
  13   52791.6    189.4 spin forbidden
  14   52791.6    189.4 spin forbidden
  15   56313.9    177.6 spin forbidden
  16  172458.7     58.0 spin forbidden
  17  172458.7     58.0 spin forbidden
  18  175266.0     57.1 spin forbidden
  19  175855.2     56.9 spin forbidden
  20  179505.2     55.7 spin forbidden

-------------------------------------------------------------------
         CD SPECTRUM VIA TRANSITION VELOCITY DIPOLE MOMENTS        
-------------------------------------------------------------------
State  Energy     Wavelength     R         MX        MY        MZ   
       (cm-1)       (nm)     (1e40*cgs)   (au)      (au)      (au)  
-------------------------------------------------------------------
   1   36352.2    275.1      0.00000  -0.00000  -0.00000  -0.00000
   2   36352.2    275.1     -0.00000   0.00000  -0.00000   0.00000
   3   64726.6    154.5     -0.00000   0.00000   0.04886  -0.48269
   4   64726.6    154.5      0.00000   0.00000  -0.48269  -0.04886
   5  125100.6     79.9      0.00000  -0.00000  -0.00000   0.00000
   6  175876.8     56.9      0.00000  -0.00000  -0.00000  -0.00000
   7  175876.8     56.9     -0.00000   0.00000  -0.00000   0.00000
   8  184577.8     54.2     -0.00000  -0.00000   0.00000   0.00000
   9  185111.4     54.0      0.00000  -0.00000   0.00000  -0.00000
  10  185117.4     54.0      0.00000   0.00000   0.00000   0.00000
  11   23411.2    427.1 spin forbidden
  12   23411.2    427.1 spin forbidden
  13   52791.6    189.4 spin forbidden
  14   52791.6    189.4 spin forbidden
  15   56313.9    177.6 spin forbidden
  16  172458.7     58.0 spin forbidden
  17  172458.7     58.0 spin forbidden
  18  175266.0     57.1 spin forbidden
  19  175855.2     56.9 spin forbidden
  20  179505.2     55.7 spin forbidden

-------------------------------------------
SOC CORRECTED TD-DFT/TDA-EXCITATION SPECTRA
--------------------------------------------

---------------------------------------------------------------------------------
SPIN ORBIT CORRECTED ABSORPTION SPECTRUM VIA TRANSITION ELECTRIC DIPOLE MOMENTS
---------------------------------------------------------------------------------
  States    Energy  Wavelength   fosc         T2         TX        TY        TZ  
            (cm-1)    (nm)                  (au**2)     (au)      (au)      (au) 
---------------------------------------------------------------------------------
   0   1   23260.3    429.9   0.000000000   0.00000   0.00000   0.00000   0.00000
   0   2   23260.4    429.9   0.000000000   0.00000   0.00000   0.00000   0.00000
   0   3   23410.5    427.2   0.000000000   0.00000   0.00000   0.00002   0.00001
   0   4   23410.5    427.2   0.000000000   0.00000   0.00000   0.00001   0.00002
   0   5   23564.1    424.4   0.000000000   0.00000   0.00000   0.00000   0.00000
   0   6   23564.9    424.4   0.000008578   0.00012   0.01095   0.00000   0.00000
   0   7   36354.7    275.1   0.000000167   0.00000   0.00000   0.00033   0.00118
   0   8   36354.7    275.1   0.000000167   0.00000   0.00000   0.00118   0.00033
   0   9   52666.5    189.9   0.000000000   0.00000   0.00000   0.00000   0.00000
   0  10   52666.5    189.9   0.000000000   0.00000   0.00000   0.00000   0.00000
   0  11   52791.9    189.4   0.000000000   0.00000   0.00000   0.00000   0.00000
   0  12   52791.9    189.4   0.000000000   0.00000   0.00000   0.00000   0.00000
   0  13   52920.1    189.0   0.000000000   0.00000   0.00000   0.00000   0.00000
   0  14   52921.7    189.0   0.000000000   0.00000   0.00000   0.00000   0.00000
   0  15   56316.7    177.6   0.000000000   0.00000   0.00000   0.00000   0.00000
   0  16   56317.0    177.6   0.000000023   0.00000   0.00000   0.00019   0.00031
   0  17   56317.0    177.6   0.000000023   0.00000   0.00000   0.00031   0.00019
   0  18   64729.6    154.5   0.000000000   0.00000   0.00000   0.00000   0.00000
   0  19   64729.6    154.5   0.000000000   0.00000   0.00000   0.00000   0.00000
   0  20  125102.7     79.9   1.103558050   2.90405   1.70413   0.00000   0.00000
   0  21  172308.4     58.0   0.000000000   0.00000   0.00000   0.00000   0.00000
   0  22  172308.6     58.0   0.000000000   0.00000   0.00000   0.00000   0.00000
   0  23  172453.1     58.0   0.000082754   0.00016   0.00000   0.01034   0.00715
   0  24  172453.1     58.0   0.000082754   0.00016   0.00000   0.00715   0.01034
   0  25  172611.0     57.9   0.000000000   0.00000   0.00000   0.00000   0.00000
   0  26  172612.1     57.9   0.000000010   0.00000   0.00014   0.00000   0.00000
   0  27  175267.5     57.1   0.000043304   0.00008   0.00000   0.00649   0.00626
   0  28  175267.5     57.1   0.000043301   0.00008   0.00000   0.00626   0.00649
   0  29  175267.7     57.1   0.000000000   0.00000   0.00000   0.00000   0.00000
   0  30  175856.8     56.9   0.000000000   0.00000   0.00000   0.00000   0.00000
   0  31  175856.8     56.9   0.000000000   0.00000   0.00000   0.00000   0.00000
   0  32  175856.8     56.9   0.000000000   0.00000   0.00000   0.00000   0.00000
   0  33  175885.5     56.9   0.042783838   0.08008   0.00000   0.15500   0.23676
   0  34  175885.5     56.9   0.042783836   0.08008   0.00000   0.23676   0.15500
   0  35  179499.4     55.7   0.000000000   0.00000   0.00000   0.00000   0.00000
   0  36  179507.3     55.7   0.000003630   0.00001   0.00000   0.00229   0.00120
   0  37  179507.3     55.7   0.000003630   0.00001   0.00000   0.00120   0.00229
   0  38  184580.6     54.2   0.000000000   0.00000   0.00000   0.00000   0.00000
   0  39  185113.3     54.0   0.000000000   0.00000   0.00000   0.00000   0.00000
   0  40  185126.9     54.0   0.000000000   0.00000   0.00000   0.00000   0.00000

---------------------------------------------------------------------------------
SPIN ORBIT CORRECTED ABSORPTION SPECTRUM VIA TRANSITION VELOCITY DIPOLE MOMENTS
---------------------------------------------------------------------------------
  States    Energy  Wavelength   fosc         P2         PX        PY        PZ  
            (cm-1)    (nm)                  (au**2)     (au)      (au)      (au) 
---------------------------------------------------------------------------------
   0   1   23260.3    429.9   0.000000000   0.00000   0.00000   0.00000   0.00000
   0   2   23260.4    429.9   0.000000000   0.00000   0.00000   0.00000   0.00000
   0   3   23410.5    427.2   0.000004139   0.00000   0.00000   0.00075   0.00031
   0   4   23410.5    427.2   0.000004139   0.00000   0.00000   0.00031   0.00075
   0   5   23564.1    424.4   0.000000000   0.00000   0.00000   0.00000   0.00000
   0   6   23564.9    424.4   0.000000285   0.00000   0.00021   0.00000   0.00000
   0   7   36354.7    275.1   0.019485748   0.00484   0.00000   0.01894   0.06695
   0   8   36354.7    275.1   0.019485748   0.00484   0.00000   0.06695   0.01894
   0   9   52666.5    189.9   0.000000000   0.00000   0.00000   0.00000   0.00000
   0  10   52666.5    189.9   0.000000000   0.00000   0.00000   0.00000   0.00000
   0  11   52791.9    189.4   0.000000000   0.00000   0.00000   0.00000   0.00000
   0  12   52791.9    189.4   0.000000000   0.00000   0.00000   0.00000   0.00000
   0  13   52920.1    189.0   0.000000000   0.00000   0.00000   0.00000   0.00000
   0  14   52921.7    189.0   0.000000000   0.00000   0.00000   0.00000   0.00000
   0  15   56316.7    177.6   0.000000000   0.00000   0.00000   0.00000   0.00000
   0  16   56317.0    177.6   0.000000532   0.00000   0.00000   0.00023   0.00039
   0  17   56317.0    177.6   0.000000532   0.00000   0.00000   0.00039   0.00023
   0  18   64729.6    154.5   0.000000000   0.00000   0.00000   0.00000   0.00000
   0  19   64729.6    154.5   0.000000000   0.00000   0.00000   0.00000   0.00000
   0  20  125102.7     79.9   0.323402672   0.27651   0.52585   0.00000   0.00000
   0  21  172308.4     58.0   0.000000000   0.00000   0.00000   0.00000   0.00000
   0  22  172308.6     58.0   0.000000000   0.00000   0.00000   0.00000   0.00000
   0  23  172453.1     58.0   0.000048332   0.00006   0.00000   0.00621   0.00429
   0  24  172453.1     58.0   0.000048332   0.00006   0.00000   0.00429   0.00621
   0  25  172611.0     57.9   0.000000000   0.00000   0.00000   0.00000   0.00000
   0  26  172612.1     57.9   0.000000084   0.00000   0.00031   0.00000   0.00000
   0  27  175267.5     57.1   0.000025106   0.00003   0.00000   0.00395   0.00381
   0  28  175267.5     57.1   0.000025104   0.00003   0.00000   0.00381   0.00395
[...]
   0  27  175267.5     57.1   0.000043304   0.00008 (  0.00000, -0.00000) (  0.00070, -0.00646) ( -0.00068,  0.00622)
   0  28  175267.5     57.1   0.000043301   0.00008 (  0.00000, -0.00000) ( -0.00068,  0.00622) ( -0.00070,  0.00646)
   0  29  175267.7     57.1   0.000000000   0.00000 (  0.00000,  0.00000) ( -0.00000, -0.00000) ( -0.00000, -0.00000)
   0  30  175856.8     56.9   0.000000000   0.00000 (  0.00000, -0.00000) ( -0.00000,  0.00000) ( -0.00000,  0.00000)
   0  31  175856.8     56.9   0.000000000   0.00000 ( -0.00000, -0.00000) (  0.00000,  0.00000) (  0.00000,  0.00000)
   0  32  175856.8     56.9   0.000000000   0.00000 (  0.00000, -0.00000) ( -0.00000,  0.00000) ( -0.00000, -0.00000)
   0  33  175885.5     56.9   0.042783838   0.08008 (  0.00000, -0.00000) ( -0.01677,  0.15409) ( -0.02562,  0.23537)
   0  34  175885.5     56.9   0.042783836   0.08008 ( -0.00000,  0.00000) (  0.02562, -0.23537) ( -0.01677,  0.15409)
   0  35  179499.4     55.7   0.000000000   0.00000 (  0.00000,  0.00000) (  0.00000,  0.00000) ( -0.00000, -0.00000)
   0  36  179507.3     55.7   0.000003630   0.00001 ( -0.00000,  0.00000) (  0.00025, -0.00227) ( -0.00013,  0.00119)
   0  37  179507.3     55.7   0.000003630   0.00001 (  0.00000, -0.00000) ( -0.00013,  0.00119) ( -0.00025,  0.00227)
   0  38  184580.6     54.2   0.000000000   0.00000 ( -0.00000, -0.00000) ( -0.00000, -0.00000) ( -0.00000, -0.00000)
   0  39  185113.3     54.0   0.000000000   0.00000 ( -0.00000, -0.00000) ( -0.00000, -0.00000) ( -0.00000, -0.00000)
   0  40  185126.9     54.0   0.000000000   0.00000 ( -0.00000, -0.00000) ( -0.00000, -0.00000) (  0.00000,  0.00000)

---------------------------------------------------------------------------------------------------------------------
                    SOC CORRECTED ABSORPTION SPECTRUM VIA TRANSITION VELOCITY DIPOLE MOMENTS*  
---------------------------------------------------------------------------------------------------------------------
   State    Energy  Wavelength   fosc         P2              PX                    PY                    PZ  
            (cm-1)    (nm)                  (au**2)          (au)                  (au)                  (au) 
---------------------------------------------------------------------------------------------------------------------
   0   1   23260.3    429.9   0.000000000   0.00000 (  0.00000, -0.00000) (  0.00000, -0.00000) ( -0.00000,  0.00000)
   0   2   23260.4    429.9   0.000000000   0.00000 (  0.00000, -0.00000) (  0.00000, -0.00000) (  0.00000, -0.00000)
   0   3   23410.5    427.2   0.000004139   0.00000 (  0.00000,  0.00000) ( -0.00075, -0.00008) ( -0.00031, -0.00003)
   0   4   23410.5    427.2   0.000004139   0.00000 (  0.00000,  0.00000) (  0.00031,  0.00003) ( -0.00075, -0.00008)
   0   5   23564.1    424.4   0.000000000   0.00000 ( -0.00000,  0.00000) (  0.00000, -0.00000) ( -0.00000,  0.00000)
   0   6   23564.9    424.4   0.000000285   0.00000 ( -0.00002,  0.00021) ( -0.00000,  0.00000) ( -0.00000,  0.00000)
   0   7   36354.7    275.1   0.019485748   0.00484 ( -0.00000, -0.00000) ( -0.01883, -0.00205) (  0.06656,  0.00725)
   0   8   36354.7    275.1   0.019485748   0.00484 ( -0.00000, -0.00000) (  0.06656,  0.00725) (  0.01883,  0.00205)
   0   9   52666.5    189.9   0.000000000   0.00000 ( -0.00000,  0.00000) (  0.00000, -0.00000) ( -0.00000,  0.00000)
   0  10   52666.5    189.9   0.000000000   0.00000 ( -0.00000, -0.00000) ( -0.00000, -0.00000) ( -0.00000, -0.00000)
   0  11   52791.9    189.4   0.000000000   0.00000 (  0.00000, -0.00000) (  0.00000, -0.00000) ( -0.00000,  0.00000)
   0  12   52791.9    189.4   0.000000000   0.00000 (  0.00000,  0.00000) ( -0.00000, -0.00000) ( -0.00000, -0.00000)
   0  13   52920.1    189.0   0.000000000   0.00000 ( -0.00000,  0.00000) (  0.00000, -0.00000) ( -0.00000,  0.00000)
   0  14   52921.7    189.0   0.000000000   0.00000 (  0.00000,  0.00000) ( -0.00000, -0.00000) ( -0.00000, -0.00000)
   0  15   56316.7    177.6   0.000000000   0.00000 ( -0.00000,  0.00000) ( -0.00000, -0.00000) ( -0.00000, -0.00000)
   0  16   56317.0    177.6   0.000000532   0.00000 (  0.00000,  0.00000) (  0.00023,  0.00003) ( -0.00039, -0.00004)
   0  17   56317.0    177.6   0.000000532   0.00000 (  0.00000,  0.00000) ( -0.00039, -0.00004) ( -0.00023, -0.00003)
   0  18   64729.6    154.5   0.000000000   0.00000 ( -0.00000, -0.00000) (  0.00000,  0.00000) (  0.00000,  0.00000)
   0  19   64729.6    154.5   0.000000000   0.00000 (  0.00000,  0.00000) (  0.00000,  0.00000) ( -0.00000, -0.00000)
   0  20  125102.7     79.9   0.323402672   0.27651 ( -0.05691,  0.52276) ( -0.00000,  0.00000) ( -0.00000,  0.00000)
   0  21  172308.4     58.0   0.000000000   0.00000 ( -0.00000,  0.00000) (  0.00000, -0.00000) (  0.00000, -0.00000)
   0  22  172308.6     58.0   0.000000000   0.00000 ( -0.00000,  0.00000) ( -0.00000,  0.00000) (  0.00000, -0.00000)
   0  23  172453.1     58.0   0.000048332   0.00006 ( -0.00000, -0.00000) (  0.00617,  0.00067) (  0.00427,  0.00046)
   0  24  172453.1     58.0   0.000048332   0.00006 ( -0.00000, -0.00000) ( -0.00427, -0.00046) (  0.00617,  0.00067)
   0  25  172611.0     57.9   0.000000000   0.00000 ( -0.00000,  0.00000) (  0.00000, -0.00000) (  0.00000, -0.00000)
   0  26  172612.1     57.9   0.000000084   0.00000 ( -0.00003,  0.00031) ( -0.00000,  0.00000) ( -0.00000,  0.00000)
   0  27  175267.5     57.1   0.000025106   0.00003 ( -0.00000, -0.00000) ( -0.00393, -0.00043) (  0.00378,  0.00041)
   0  28  175267.5     57.1   0.000025104   0.00003 ( -0.00000, -0.00000) (  0.00378,  0.00041) (  0.00393,  0.00043)
   0  29  175267.7     57.1   0.000000000   0.00000 (  0.00000, -0.00000) ( -0.00000,  0.00000) ( -0.00000,  0.00000)
   0  30  175856.8     56.9   0.000000000   0.00000 ( -0.00000, -0.00000) (  0.00000,  0.00000) (  0.00000,  0.00000)
   0  31  175856.8     56.9   0.000000000   0.00000 ( -0.00000,  0.00000) (  0.00000, -0.00000) (  0.00000, -0.00000)
   0  32  175856.8     56.9   0.000000000   0.00000 ( -0.00000, -0.00000) (  0.00000,  0.00000) ( -0.00000,  0.00000)
   0  33  175885.5     56.9   0.024025038   0.02888 ( -0.00000, -0.00000) (  0.09254,  0.01007) (  0.14135,  0.01539)
   0  34  175885.5     56.9   0.024025036   0.02888 (  0.00000,  0.00000) ( -0.14135, -0.01539) (  0.09254,  0.01007)
   0  35  179499.4     55.7   0.000000000   0.00000 (  0.00000, -0.00000) (  0.00000, -0.00000) ( -0.00000,  0.00000)
   0  36  179507.3     55.7   0.000001860   0.00000 (  0.00000,  0.00000) ( -0.00133, -0.00014) (  0.00070,  0.00008)
   0  37  179507.3     55.7   0.000001860   0.00000 ( -0.00000, -0.00000) (  0.00070,  0.00008) (  0.00133,  0.00014)
   0  38  184580.6     54.2   0.000000000   0.00000 ( -0.00000,  0.00001) ( -0.00000,  0.00000) ( -0.00000,  0.00000)
   0  39  185113.3     54.0   0.000000000   0.00000 ( -0.00000,  0.00000) ( -0.00000,  0.00000) (  0.00000, -0.00000)
   0  40  185126.9     54.0   0.000000000   0.00000 ( -0.00000,  0.00000) (  0.00000, -0.00000) (  0.00000, -0.00000)

-------------------------------------------------------------------------------------------------------
                                     SOC CORRECTED CD SPECTRUM*  
-------------------------------------------------------------------------------------------------------
   State    Energy  Wavelength      R               MX                    MY                    MZ  
            (cm-1)     (nm)      (1e40*sgs)         (au)                  (au)                  (au) 
-------------------------------------------------------------------------------------------------------
   0   1   23260.3    429.9      0.00000 (  0.00000, -0.00000) (  0.00000, -0.00000) ( -0.00000,  0.00000)
   0   2   23260.4    429.9      0.00000 (  0.00000, -0.00000) (  0.00000, -0.00000) (  0.00000, -0.00000)
   0   3   23410.5    427.2      0.00000 (  0.00000,  0.00000) ( -0.00000, -0.00000) (  0.00000,  0.00000)
   0   4   23410.5    427.2     -0.00000 ( -0.00000, -0.00000) ( -0.00000, -0.00000) ( -0.00000, -0.00000)
   0   5   23564.1    424.4      0.00000 ( -0.00000,  0.00000) (  0.00000, -0.00000) (  0.00000, -0.00000)
   0   6   23564.9    424.4     -0.00000 (  0.00000, -0.00000) ( -0.00000,  0.00000) (  0.00000, -0.00000)
   0   7   36354.7    275.1      0.00000 (  0.00000,  0.00000) (  0.00000,  0.00000) (  0.00000,  0.00000)
   0   8   36354.7    275.1     -0.00000 ( -0.00000, -0.00000) (  0.00000,  0.00000) ( -0.00000, -0.00000)
   0   9   52666.5    189.9     -0.00000 ( -0.00000,  0.00000) (  0.00000, -0.00000) (  0.00000, -0.00000)
   0  10   52666.5    189.9     -0.00000 ( -0.00000, -0.00000) (  0.00000,  0.00000) ( -0.00000, -0.00000)
   0  11   52791.9    189.4      0.00000 ( -0.00000,  0.00000) (  0.00513, -0.00045) (  0.00005, -0.00000)
   0  12   52791.9    189.4     -0.00000 (  0.00000,  0.00000) (  0.00005,  0.00001) ( -0.00512, -0.00057)
   0  13   52920.1    189.0      0.00000 ( -0.00212,  0.00181) ( -0.00000,  0.00000) ( -0.00000,  0.00000)
   0  14   52921.7    189.0      0.00000 (  0.00000, -0.00000) (  0.00000,  0.00000) (  0.00000,  0.00000)
   0  15   56316.7    177.6      0.00000 ( -0.00000,  0.00000) ( -0.00000,  0.00000) ( -0.00000,  0.00000)
   0  16   56317.0    177.6     -0.00000 (  0.00000,  0.00000) ( -0.00000, -0.00000) ( -0.00000, -0.00000)
   0  17   56317.0    177.6      0.00000 (  0.00000,  0.00000) ( -0.00000, -0.00000) (  0.00000,  0.00000)
   0  18   64729.6    154.5     -0.00000 ( -0.00000, -0.00000) ( -0.04801, -0.00917) (  0.47409,  0.09049)
   0  19   64729.6    154.5      0.00000 ( -0.00000, -0.00000) (  0.39517,  0.27711) (  0.04002,  0.02805)
   0  20  125102.7     79.9      0.00000 ( -0.00000,  0.00000) ( -0.00000,  0.00000) (  0.00000, -0.00000)
   0  21  172308.4     58.0     -0.00000 (  0.00000, -0.00000) ( -0.00000,  0.00000) ( -0.00000,  0.00000)
   0  22  172308.6     58.0     -0.00000 ( -0.00000,  0.00000) (  0.00000, -0.00000) ( -0.00000,  0.00000)
   0  23  172453.1     58.0     -0.00000 ( -0.00000, -0.00000) (  0.00000,  0.00000) ( -0.00000, -0.00000)
   0  24  172453.1     58.0      0.00000 (  0.00000,  0.00000) (  0.00000,  0.00000) (  0.00000,  0.00000)
   0  25  172611.0     57.9     -0.00000 (  0.00000, -0.00000) ( -0.00000,  0.00000) ( -0.00000,  0.00000)
   0  26  172612.1     57.9     -0.00000 ( -0.00000, -0.00000) ( -0.00000,  0.00000) ( -0.00000,  0.00000)
   0  27  175267.5     57.1      0.00000 (  0.00000,  0.00000) (  0.00000,  0.00000) (  0.00000,  0.00000)
   0  28  175267.5     57.1     -0.00000 ( -0.00000, -0.00000) (  0.00000,  0.00000) ( -0.00000, -0.00000)
   0  29  175267.7     57.1     -0.00000 ( -0.00000,  0.00000) (  0.00000, -0.00000) (  0.00000, -0.00000)
   0  30  175856.8     56.9     -0.00000 (  0.00000,  0.00000) (  0.00000, -0.00000) ( -0.00000,  0.00000)
   0  31  175856.8     56.9     -0.00000 ( -0.00000,  0.00000) (  0.00013, -0.00136) ( -0.00008,  0.00006)
   0  32  175856.8     56.9      0.00000 (  0.00000,  0.00000) ( -0.00008,  0.00006) ( -0.00135, -0.00023)
   0  33  175885.5     56.9     -0.00000 ( -0.00000, -0.00000) (  0.00000,  0.00000) ( -0.00000, -0.00000)
   0  34  175885.5     56.9      0.00000 (  0.00000,  0.00000) (  0.00000,  0.00000) (  0.00000,  0.00000)
   0  35  179499.4     55.7      0.00000 (  0.00000, -0.00000) (  0.00000, -0.00000) (  0.00000, -0.00000)
   0  36  179507.3     55.7      0.00000 (  0.00000,  0.00000) (  0.00000,  0.00000) (  0.00000,  0.00000)
   0  37  179507.3     55.7     -0.00000 ( -0.00000, -0.00000) (  0.00000,  0.00000) ( -0.00000, -0.00000)
   0  38  184580.6     54.2      0.00000 ( -0.00000,  0.00000) ( -0.00000,  0.00000) ( -0.00000,  0.00000)
   0  39  185113.3     54.0      0.00000 ( -0.00000,  0.00000) (  0.00000, -0.00000) ( -0.00000,  0.00000)
   0  40  185126.9     54.0      0.00000 ( -0.00000,  0.00000) ( -0.00000,  0.00000) ( -0.00000,  0.00000)

-------------------------------------------------------------------------------------------------------
                    SOC CORRECTED CD SPECTRUM VIA TRANSITION VELOCITY DIPOLE MOMENTS                   
-------------------------------------------------------------------------------------------------------
   State    Energy  Wavelengt      R               MX                    MY                    MZ  
            (cm-1)    (nm)     (1e40*sgs)         (au)                  (au)                  (au) 
-------------------------------------------------------------------------------------------------------
   0   1   23260.3    429.9     -0.00000 (  0.00000, -0.00000) (  0.00000, -0.00000) ( -0.00000,  0.00000)
   0   2   23260.4    429.9     -0.00000 (  0.00000, -0.00000) (  0.00000, -0.00000) (  0.00000, -0.00000)
   0   3   23410.5    427.2      0.00000 (  0.00000,  0.00000) ( -0.00000, -0.00000) (  0.00000,  0.00000)
   0   4   23410.5    427.2     -0.00000 ( -0.00000, -0.00000) ( -0.00000, -0.00000) ( -0.00000, -0.00000)
   0   5   23564.1    424.4     -0.00000 ( -0.00000,  0.00000) (  0.00000, -0.00000) (  0.00000, -0.00000)
   0   6   23564.9    424.4      0.00000 (  0.00000, -0.00000) ( -0.00000,  0.00000) (  0.00000, -0.00000)
   0   7   36354.7    275.1      0.00000 (  0.00000,  0.00000) (  0.00000,  0.00000) (  0.00000,  0.00000)
   0   8   36354.7    275.1     -0.00000 ( -0.00000, -0.00000) (  0.00000,  0.00000) ( -0.00000, -0.00000)
   0   9   52666.5    189.9     -0.00000 ( -0.00000,  0.00000) (  0.00000, -0.00000) (  0.00000, -0.00000)
   0  10   52666.5    189.9     -0.00000 ( -0.00000, -0.00000) (  0.00000,  0.00000) ( -0.00000, -0.00000)
   0  11   52791.9    189.4     -0.00000 ( -0.00000,  0.00000) (  0.00513, -0.00045) (  0.00005, -0.00000)
   0  12   52791.9    189.4      0.00000 (  0.00000,  0.00000) (  0.00005,  0.00001) ( -0.00512, -0.00057)
   0  13   52920.1    189.0     -0.00000 ( -0.00212,  0.00181) ( -0.00000,  0.00000) ( -0.00000,  0.00000)
   0  14   52921.7    189.0     -0.00000 (  0.00000, -0.00000) (  0.00000,  0.00000) (  0.00000,  0.00000)
   0  15   56316.7    177.6     -0.00000 ( -0.00000,  0.00000) ( -0.00000,  0.00000) ( -0.00000,  0.00000)
   0  16   56317.0    177.6      0.00000 (  0.00000,  0.00000) ( -0.00000, -0.00000) ( -0.00000, -0.00000)
   0  17   56317.0    177.6     -0.00000 (  0.00000,  0.00000) ( -0.00000, -0.00000) (  0.00000,  0.00000)
   0  18   64729.6    154.5      0.00000 ( -0.00000, -0.00000) ( -0.04801, -0.00917) (  0.47409,  0.09049)
   0  19   64729.6    154.5     -0.00000 ( -0.00000, -0.00000) (  0.39517,  0.27711) (  0.04002,  0.02805)
   0  20  125102.7     79.9     -0.00000 ( -0.00000,  0.00000) ( -0.00000,  0.00000) (  0.00000, -0.00000)
   0  21  172308.4     58.0      0.00000 (  0.00000, -0.00000) ( -0.00000,  0.00000) ( -0.00000,  0.00000)
   0  22  172308.6     58.0     -0.00000 ( -0.00000,  0.00000) (  0.00000, -0.00000) ( -0.00000,  0.00000)
   0  23  172453.1     58.0      0.00000 ( -0.00000, -0.00000) (  0.00000,  0.00000) ( -0.00000, -0.00000)
   0  24  172453.1     58.0     -0.00000 (  0.00000,  0.00000) (  0.00000,  0.00000) (  0.00000,  0.00000)
   0  25  172611.0     57.9      0.00000 (  0.00000, -0.00000) ( -0.00000,  0.00000) ( -0.00000,  0.00000)
   0  26  172612.1     57.9      0.00000 ( -0.00000, -0.00000) ( -0.00000,  0.00000) ( -0.00000,  0.00000)
   0  27  175267.5     57.1     -0.00000 (  0.00000,  0.00000) (  0.00000,  0.00000) (  0.00000,  0.00000)
   0  28  175267.5     57.1      0.00000 ( -0.00000, -0.00000) (  0.00000,  0.00000) ( -0.00000, -0.00000)
   0  29  175267.7     57.1      0.00000 ( -0.00000,  0.00000) (  0.00000, -0.00000) (  0.00000, -0.00000)
   0  30  175856.8     56.9      0.00000 (  0.00000,  0.00000) (  0.00000, -0.00000) ( -0.00000,  0.00000)
   0  31  175856.8     56.9      0.00000 ( -0.00000,  0.00000) (  0.00013, -0.00136) ( -0.00008,  0.00006)
   0  32  175856.8     56.9     -0.00000 (  0.00000,  0.00000) ( -0.00008,  0.00006) ( -0.00135, -0.00023)
   0  33  175885.5     56.9      0.00000 ( -0.00000, -0.00000) (  0.00000,  0.00000) ( -0.00000, -0.00000)
   0  34  175885.5     56.9     -0.00000 (  0.00000,  0.00000) (  0.00000,  0.00000) (  0.00000,  0.00000)
   0  35  179499.4     55.7     -0.00000 (  0.00000, -0.00000) (  0.00000, -0.00000) (  0.00000, -0.00000)
   0  36  179507.3     55.7     -0.00000 (  0.00000,  0.00000) (  0.00000,  0.00000) (  0.00000,  0.00000)
   0  37  179507.3     55.7      0.00000 ( -0.00000, -0.00000) (  0.00000,  0.00000) ( -0.00000, -0.00000)
   0  38  184580.6     54.2     -0.00000 ( -0.00000,  0.00000) ( -0.00000,  0.00000) ( -0.00000,  0.00000)
   0  39  185113.3     54.0     -0.00000 ( -0.00000,  0.00000) (  0.00000, -0.00000) ( -0.00000,  0.00000)
   0  40  185126.9     54.0     -0.00000 ( -0.00000,  0.00000) ( -0.00000,  0.00000) ( -0.00000,  0.00000)

*The complex numbers are printed as (real, imaginary)

The electronic components of the SOC ground state dipole moment in a.u. are:
           X                     Y                     Z
(  0.00000, -0.00000) (  0.00000,  0.00000) (  0.00000, -0.00000)

Total run time:        7.237 sec

           *** ORCA-CIS/TD-DFT FINISHED WITHOUT ERROR ***

Maximum memory used throughout the entire CIS-calculation: 68.7 MB

---------------------------
SOC CIS/TD-DFT TOTAL ENERGY
---------------------------

    E(SCF)        =   -199.401185314 Eh
    E(SOC CIS)    =      0.105974275 Eh (SOC Root  1)
    ----------------------------- ---------
    E(tot)        =   -199.295211039 Eh


-------------------------   --------------------
FINAL SINGLE POINT ENERGY      -199.295211039220
-------------------------   --------------------


                            ***************************************
                            *     ORCA property calculations      *
                            ***************************************

                                    ---------------------
                                    Active property flags
                                    ---------------------
   (+) Dipole Moment


------------------------------------------------------------------------------
                       ORCA ELECTRIC PROPERTIES CALCULATION
------------------------------------------------------------------------------

Dipole Moment Calculation                       ... on
Quadrupole Moment Calculation                   ... off
Polarizability Calculation                      ... off
GBWName                                         ... orca.gbw
Electron density                                ... orca.scfp
The origin for moment calculation is the CENTER OF MASS  = ( 7.558905,  7.558905  7.558905)

-------------
DIPOLE MOMENT
-------------
                                X             Y             Z
Electronic contribution:      0.00000       0.00000       0.00000
Nuclear contribution   :      0.00000      -0.00000      -0.00000
                        -----------------------------------------
Total Dipole Moment    :      0.00000       0.00000       0.00000
                        -----------------------------------------
Magnitude (a.u.)       :      0.00000
Magnitude (Debye)      :      0.00000



--------------------
Rotational spectrum 
--------------------
 
Rotational constants in cm-1:     0.000000     0.888883     0.888883 
Rotational constants in MHz :     0.000000 26648.055486 26648.055486 

 Dipole components along the rotational axes: 
x,y,z [a.u.] :     0.000000     0.000000     0.000000 
x,y,z [Debye]:     0.000000     0.000000     0.000000 

 

Timings for individual modules:

Sum of individual times         ...       51.020 sec (=   0.850 min)
GTO integral calculation        ...        0.123 sec (=   0.002 min)   0.2 %
SCF iterations                  ...       43.648 sec (=   0.727 min)  85.6 %
CIS module                      ...        7.250 sec (=   0.121 min)  14.2 %
                             ****ORCA TERMINATED NORMALLY****
TOTAL RUN TIME: 0 days 0 hours 1 minutes 0 seconds 654 msec
