 DBCSR| CPU Multiplication driver                                           XSMM (U)
 DBCSR| Multrec recursion limit                                              512 (U)
 DBCSR| Multiplication stack size                                           1000 (D)
 DBCSR| Maximum elements for images                                    UNLIMITED (U)
 DBCSR| Multiplicative factor virtual images                                   1 (U)
 DBCSR| Use multiplication densification                                       T (D)
 DBCSR| Multiplication size stacks                                             3 (U)
 DBCSR| Use memory pool for CPU allocation                                     F (U)
 DBCSR| Number of 3D layers                                               SINGLE (U)
 DBCSR| Use MPI memory allocation                                              F (U)
 DBCSR| Use RMA algorithm                                                      F (U)
 DBCSR| Use Communication thread                                               T (U)
 DBCSR| Communication thread load                                             83 (D)
 DBCSR| MPI: My process id                                                     0
 DBCSR| MPI: Number of processes                                              64
 DBCSR| OMP: Current number of threads                                         2
 DBCSR| OMP: Max number of threads                                             2
 DBCSR| Split modifier for TAS multiplication algorithm                  1.0E+00 (U)


  **** **** ******  **  PROGRAM STARTED AT               2023-12-05 17:13:03.143
 ***** ** ***  *** **   PROGRAM STARTED ON                           nesh-clk522
 **    ****   ******    PROGRAM STARTED BY                              suphc355
 ***** **    ** ** **   PROGRAM PROCESS ID                               1517346
  **** **  *******  **  PROGRAM STARTED IN /gxfs_work/cau/suphc355/homologes/H2X
                                           /AE/S

 CP2K| version string:                 CP2K version 2023.2 (Development Version)
 CP2K| source code revision number:                                  git:845a3ae
 CP2K| cp2kflags: omp libint fftw3 libxc parallel mpi_f08 scalapack cosma xsmm s
 CP2K|            pglib mkl
 CP2K| is freely available from                            https://www.cp2k.org/
 CP2K| Program compiled at                           Fr 1. Dez 12:58:35 CET 2023
 CP2K| Program compiled on                                           nesh-login3
 CP2K| Program compiled for                                                local
 CP2K| Data directory path            /gxfs_home/cau/suphc355/software/cp2k/data
 CP2K| Input file name                                                    AE.inp
 
 GLOBAL| Force Environment number                                              1
 GLOBAL| Basis set file name                                     EMSL_BASIS_SETS
 GLOBAL| Potential file name                                           POTENTIAL
 GLOBAL| MM Potential file name                                     MM_POTENTIAL
 GLOBAL| Coordinate file name                                            opt.xyz
 GLOBAL| Method name                                                        CP2K
 GLOBAL| Project name                                                     H2S_AE
 GLOBAL| Run type                                                         ENERGY
 GLOBAL| FFT library                                                       FFTW3
 GLOBAL| Diagonalization library                                       ScaLAPACK
 GLOBAL| DGEMM library                                                      BLAS
 GLOBAL| Orthonormality check for eigenvectors                          DISABLED
 GLOBAL| Matrix multiplication library                                     COSMA
 GLOBAL| All-to-all communication in single precision                          F
 GLOBAL| FFTs using library dependent lengths                                  F
 GLOBAL| Grid backend                                                       AUTO
 GLOBAL| Global print level                                               MEDIUM
 GLOBAL| MPI I/O enabled                                                       T
 GLOBAL| Total number of message passing processes                            64
 GLOBAL| Number of threads for this process                                    2
 GLOBAL| This output is from process                                           0
 GLOBAL| Stack size for threads created by OpenMP (OMP_STACKSIZE)        default
 GLOBAL| CPU model name                Intel(R) Xeon(R) Gold 6226R CPU @ 2.90GHz
 GLOBAL| CPUID                                                              1003

 MEMORY| system memory details [Kb]
 MEMORY|                        rank 0           min           max       average
 MEMORY| MemTotal            196683224     196683224     196683224     196683224
 MEMORY| MemFree             176432652     175761732     176433240     176097225
 MEMORY| Buffers                739992        739992        933012        836502
 MEMORY| Cached                1062036       1062020       1319644       1190839
 MEMORY| Slab                   644876        644876        840436        742656
 MEMORY| SReclaimable           219948        219948        311068        265508
 MEMORY| MemLikelyFree       178454628     178325456     178455200     178390075


 *** Fundamental physical constants (SI units) ***

 *** Literature: B. J. Mohr and B. N. Taylor,
 ***             CODATA recommended values of the fundamental physical
 ***             constants: 2006, Web Version 5.1
 ***             http://physics.nist.gov/constants

 Speed of light in vacuum [m/s]                             2.99792458000000E+08
 Magnetic constant or permeability of vacuum [N/A**2]       1.25663706143592E-06
 Electric constant or permittivity of vacuum [F/m]          8.85418781762039E-12
 Planck constant (h) [J*s]                                  6.62606896000000E-34
 Planck constant (h-bar) [J*s]                              1.05457162825177E-34
 Elementary charge [C]                                      1.60217648700000E-19
 Electron mass [kg]                                         9.10938215000000E-31
 Electron g factor [ ]                                     -2.00231930436220E+00
 Proton mass [kg]                                           1.67262163700000E-27
 Fine-structure constant                                    7.29735253760000E-03
 Rydberg constant [1/m]                                     1.09737315685270E+07
 Avogadro constant [1/mol]                                  6.02214179000000E+23
 Boltzmann constant [J/K]                                   1.38065040000000E-23
 Atomic mass unit [kg]                                      1.66053878200000E-27
 Bohr radius [m]                                            5.29177208590000E-11

 *** Conversion factors ***

 [u] -> [a.u.]                                              1.82288848426455E+03
 [Angstrom] -> [Bohr] = [a.u.]                              1.88972613288564E+00
 [a.u.] = [Bohr] -> [Angstrom]                              5.29177208590000E-01
 [a.u.] -> [s]                                              2.41888432650478E-17
 [a.u.] -> [fs]                                             2.41888432650478E-02
 [a.u.] -> [J]                                              4.35974393937059E-18
 [a.u.] -> [N]                                              8.23872205491840E-08
 [a.u.] -> [K]                                              3.15774647902944E+05
 [a.u.] -> [kJ/mol]                                         2.62549961709828E+03
 [a.u.] -> [kcal/mol]                                       6.27509468713739E+02
 [a.u.] -> [Pa]                                             2.94210107994716E+13
 [a.u.] -> [bar]                                            2.94210107994716E+08
 [a.u.] -> [atm]                                            2.90362800883016E+08
 [a.u.] -> [eV]                                             2.72113838565563E+01
 [a.u.] -> [Hz]                                             6.57968392072181E+15
 [a.u.] -> [1/cm] (wave numbers)                            2.19474631370540E+05
 [a.u./Bohr**2] -> [1/cm]                                   5.14048714338585E+03
 

 CELL_TOP| Volume [angstrom^3]:                                       512.000000
 CELL_TOP| Vector a [angstrom     8.000     0.000     0.000   |a| =     8.000000
 CELL_TOP| Vector b [angstrom     0.000     8.000     0.000   |b| =     8.000000
 CELL_TOP| Vector c [angstrom     0.000     0.000     8.000   |c| =     8.000000
 CELL_TOP| Angle (b,c), alpha [degree]:                                90.000000
 CELL_TOP| Angle (a,c), beta  [degree]:                                90.000000
 CELL_TOP| Angle (a,b), gamma [degree]:                                90.000000
 CELL_TOP| Numerically orthorhombic:                                         YES
 CELL_TOP| Periodicity                                                      NONE
 
 GENERATE|  Preliminary Number of Bonds generated:                             0
 GENERATE|  Achieved consistency in connectivity generation.

 CELL| Volume [angstrom^3]:                                           512.000000
 CELL| Vector a [angstrom]:       8.000     0.000     0.000   |a| =     8.000000
 CELL| Vector b [angstrom]:       0.000     8.000     0.000   |b| =     8.000000
 CELL| Vector c [angstrom]:       0.000     0.000     8.000   |c| =     8.000000
 CELL| Angle (b,c), alpha [degree]:                                    90.000000
 CELL| Angle (a,c), beta  [degree]:                                    90.000000
 CELL| Angle (a,b), gamma [degree]:                                    90.000000
 CELL| Numerically orthorhombic:                                             YES
 CELL| Periodicity                                                          NONE

 CELL_REF| Volume [angstrom^3]:                                       512.000000
 CELL_REF| Vector a [angstrom     8.000     0.000     0.000   |a| =     8.000000
 CELL_REF| Vector b [angstrom     0.000     8.000     0.000   |b| =     8.000000
 CELL_REF| Vector c [angstrom     0.000     0.000     8.000   |c| =     8.000000
 CELL_REF| Angle (b,c), alpha [degree]:                                90.000000
 CELL_REF| Angle (a,c), beta  [degree]:                                90.000000
 CELL_REF| Angle (a,b), gamma [degree]:                                90.000000
 CELL_REF| Numerically orthorhombic:                                         YES
 CELL_REF| Periodicity                                                      NONE

 *******************************************************************************
 *   ___                                                                       *
 *  /   \                                                                      *
 * [ABORT]                                                                     *
 *  \___/    The requested basis set <DEF2-TZVP> for element <H> was not found *
 *    |                  in the basis set files <EMSL_BASIS_SETS>              *
 *  O/|                                                                        *
 * /| |                                                                        *
 * / \                                          aobasis/basis_set_types.F:1438 *
 *******************************************************************************


 ===== Routine Calling Stack ===== 

            3 read_qs_kind
            2 create_qs_kind_set
            1 CP2K
 DBCSR| CPU Multiplication driver                                           XSMM (U)
 DBCSR| Multrec recursion limit                                              512 (U)
 DBCSR| Multiplication stack size                                           1000 (D)
 DBCSR| Maximum elements for images                                    UNLIMITED (U)
 DBCSR| Multiplicative factor virtual images                                   1 (U)
 DBCSR| Use multiplication densification                                       T (D)
 DBCSR| Multiplication size stacks                                             3 (U)
 DBCSR| Use memory pool for CPU allocation                                     F (U)
 DBCSR| Number of 3D layers                                               SINGLE (U)
 DBCSR| Use MPI memory allocation                                              F (U)
 DBCSR| Use RMA algorithm                                                      F (U)
 DBCSR| Use Communication thread                                               T (U)
 DBCSR| Communication thread load                                             83 (D)
 DBCSR| MPI: My process id                                                     0
 DBCSR| MPI: Number of processes                                              64
 DBCSR| OMP: Current number of threads                                         2
 DBCSR| OMP: Max number of threads                                             2
 DBCSR| Split modifier for TAS multiplication algorithm                  1.0E+00 (U)


  **** **** ******  **  PROGRAM STARTED AT               2023-12-05 17:14:28.497
 ***** ** ***  *** **   PROGRAM STARTED ON                           nesh-clk547
 **    ****   ******    PROGRAM STARTED BY                              suphc355
 ***** **    ** ** **   PROGRAM PROCESS ID                               2877507
  **** **  *******  **  PROGRAM STARTED IN /gxfs_work/cau/suphc355/homologes/H2X
                                           /AE/S

 CP2K| version string:                 CP2K version 2023.2 (Development Version)
 CP2K| source code revision number:                                  git:845a3ae
 CP2K| cp2kflags: omp libint fftw3 libxc parallel mpi_f08 scalapack cosma xsmm s
 CP2K|            pglib mkl
 CP2K| is freely available from                            https://www.cp2k.org/
 CP2K| Program compiled at                           Fr 1. Dez 12:58:35 CET 2023
 CP2K| Program compiled on                                           nesh-login3
 CP2K| Program compiled for                                                local
 CP2K| Data directory path            /gxfs_home/cau/suphc355/software/cp2k/data
 CP2K| Input file name                                                    AE.inp
 
 GLOBAL| Force Environment number                                              1
 GLOBAL| Basis set file name                                   ../../../basis_ae
 GLOBAL| Potential file name                                           POTENTIAL
 GLOBAL| MM Potential file name                                     MM_POTENTIAL
 GLOBAL| Coordinate file name                                            opt.xyz
 GLOBAL| Method name                                                        CP2K
 GLOBAL| Project name                                                     H2S_AE
 GLOBAL| Run type                                                         ENERGY
 GLOBAL| FFT library                                                       FFTW3
 GLOBAL| Diagonalization library                                       ScaLAPACK
 GLOBAL| DGEMM library                                                      BLAS
 GLOBAL| Orthonormality check for eigenvectors                          DISABLED
 GLOBAL| Matrix multiplication library                                     COSMA
 GLOBAL| All-to-all communication in single precision                          F
 GLOBAL| FFTs using library dependent lengths                                  F
 GLOBAL| Grid backend                                                       AUTO
 GLOBAL| Global print level                                               MEDIUM
 GLOBAL| MPI I/O enabled                                                       T
 GLOBAL| Total number of message passing processes                            64
 GLOBAL| Number of threads for this process                                    2
 GLOBAL| This output is from process                                           0
 GLOBAL| Stack size for threads created by OpenMP (OMP_STACKSIZE)        default
 GLOBAL| CPU model name                Intel(R) Xeon(R) Gold 6226R CPU @ 2.90GHz
 GLOBAL| CPUID                                                              1003

 MEMORY| system memory details [Kb]
 MEMORY|                        rank 0           min           max       average
 MEMORY| MemTotal            196683224     196682748     196683224     196682986
 MEMORY| MemFree             176905004     176905004     177179180     177042116
 MEMORY| Buffers                563480        558700        563480        561090
 MEMORY| Cached                 999564        876172        999564        937654
 MEMORY| Slab                   550180        539304        550180        544742
 MEMORY| SReclaimable           190648        177312        190648        183980
 MEMORY| MemLikelyFree       178658696     178658368     178791364     178724840


 *** Fundamental physical constants (SI units) ***

 *** Literature: B. J. Mohr and B. N. Taylor,
 ***             CODATA recommended values of the fundamental physical
 ***             constants: 2006, Web Version 5.1
 ***             http://physics.nist.gov/constants

 Speed of light in vacuum [m/s]                             2.99792458000000E+08
 Magnetic constant or permeability of vacuum [N/A**2]       1.25663706143592E-06
 Electric constant or permittivity of vacuum [F/m]          8.85418781762039E-12
 Planck constant (h) [J*s]                                  6.62606896000000E-34
 Planck constant (h-bar) [J*s]                              1.05457162825177E-34
 Elementary charge [C]                                      1.60217648700000E-19
 Electron mass [kg]                                         9.10938215000000E-31
 Electron g factor [ ]                                     -2.00231930436220E+00
 Proton mass [kg]                                           1.67262163700000E-27
 Fine-structure constant                                    7.29735253760000E-03
 Rydberg constant [1/m]                                     1.09737315685270E+07
 Avogadro constant [1/mol]                                  6.02214179000000E+23
 Boltzmann constant [J/K]                                   1.38065040000000E-23
 Atomic mass unit [kg]                                      1.66053878200000E-27
 Bohr radius [m]                                            5.29177208590000E-11

 *** Conversion factors ***

 [u] -> [a.u.]                                              1.82288848426455E+03
 [Angstrom] -> [Bohr] = [a.u.]                              1.88972613288564E+00
 [a.u.] = [Bohr] -> [Angstrom]                              5.29177208590000E-01
 [a.u.] -> [s]                                              2.41888432650478E-17
 [a.u.] -> [fs]                                             2.41888432650478E-02
 [a.u.] -> [J]                                              4.35974393937059E-18
 [a.u.] -> [N]                                              8.23872205491840E-08
 [a.u.] -> [K]                                              3.15774647902944E+05
 [a.u.] -> [kJ/mol]                                         2.62549961709828E+03
 [a.u.] -> [kcal/mol]                                       6.27509468713739E+02
 [a.u.] -> [Pa]                                             2.94210107994716E+13
 [a.u.] -> [bar]                                            2.94210107994716E+08
 [a.u.] -> [atm]                                            2.90362800883016E+08
 [a.u.] -> [eV]                                             2.72113838565563E+01
 [a.u.] -> [Hz]                                             6.57968392072181E+15
 [a.u.] -> [1/cm] (wave numbers)                            2.19474631370540E+05
 [a.u./Bohr**2] -> [1/cm]                                   5.14048714338585E+03
 

 CELL_TOP| Volume [angstrom^3]:                                       512.000000
 CELL_TOP| Vector a [angstrom     8.000     0.000     0.000   |a| =     8.000000
 CELL_TOP| Vector b [angstrom     0.000     8.000     0.000   |b| =     8.000000
 CELL_TOP| Vector c [angstrom     0.000     0.000     8.000   |c| =     8.000000
 CELL_TOP| Angle (b,c), alpha [degree]:                                90.000000
 CELL_TOP| Angle (a,c), beta  [degree]:                                90.000000
 CELL_TOP| Angle (a,b), gamma [degree]:                                90.000000
 CELL_TOP| Numerically orthorhombic:                                         YES
 CELL_TOP| Periodicity                                                      NONE
 
 GENERATE|  Preliminary Number of Bonds generated:                             0
 GENERATE|  Achieved consistency in connectivity generation.

 CELL| Volume [angstrom^3]:                                           512.000000
 CELL| Vector a [angstrom]:       8.000     0.000     0.000   |a| =     8.000000
 CELL| Vector b [angstrom]:       0.000     8.000     0.000   |b| =     8.000000
 CELL| Vector c [angstrom]:       0.000     0.000     8.000   |c| =     8.000000
 CELL| Angle (b,c), alpha [degree]:                                    90.000000
 CELL| Angle (a,c), beta  [degree]:                                    90.000000
 CELL| Angle (a,b), gamma [degree]:                                    90.000000
 CELL| Numerically orthorhombic:                                             YES
 CELL| Periodicity                                                          NONE

 CELL_REF| Volume [angstrom^3]:                                       512.000000
 CELL_REF| Vector a [angstrom     8.000     0.000     0.000   |a| =     8.000000
 CELL_REF| Vector b [angstrom     0.000     8.000     0.000   |b| =     8.000000
 CELL_REF| Vector c [angstrom     0.000     0.000     8.000   |c| =     8.000000
 CELL_REF| Angle (b,c), alpha [degree]:                                90.000000
 CELL_REF| Angle (a,c), beta  [degree]:                                90.000000
 CELL_REF| Angle (a,b), gamma [degree]:                                90.000000
 CELL_REF| Numerically orthorhombic:                                         YES
 CELL_REF| Periodicity                                                      NONE

 *******************************************************************************
 *******************************************************************************
 **                                                                           **
 **     #####                         ##              ##                      **
 **    ##   ##            ##          ##              ##                      **
 **   ##     ##                       ##            ######                    **
 **   ##     ##  ##   ##  ##   #####  ##  ##   ####   ##    #####    #####    **
 **   ##     ##  ##   ##  ##  ##      ## ##   ##      ##   ##   ##  ##   ##   **
 **   ##  ## ##  ##   ##  ##  ##      ####     ###    ##   ######   ######    **
 **    ##  ###   ##   ##  ##  ##      ## ##      ##   ##   ##       ##        **
 **     #######   #####   ##   #####  ##  ##  ####    ##    #####   ##        **
 **           ##                                                    ##        **
 **                                                                           **
 **                                                ... make the atoms dance   **
 **                                                                           **
 **            Copyright (C) by CP2K developers group (2000-2023)             **
 **                      J. Chem. Phys. 152, 194103 (2020)                    **
 **                                                                           **
 *******************************************************************************

 DFT| Spin restricted Kohn-Sham (RKS) calculation                            RKS
 DFT| Multiplicity                                                             1
 DFT| Number of spin states                                                    1
 DFT| Charge                                                                   0
 DFT| Self-interaction correction (SIC)                                       NO
 DFT| Cutoffs: density                                              1.000000E-10
 DFT|          gradient                                             1.000000E-10
 DFT|          tau                                                  1.000000E-10
 DFT|          cutoff_smoothing_range                               0.000000E+00
 DFT| XC density smoothing                                                  NONE
 DFT| XC derivatives                                                          PW

 FUNCTIONAL| PBE:
 FUNCTIONAL| J.P.Perdew, K.Burke, M.Ernzerhof, Phys. Rev. Letter, vol. 77, n 18,
 FUNCTIONAL|  pp. 3865-3868, (1996) {spin unpolarized}                          


 QS| Method:                                                                GAPW
 QS| Density plane wave grid type                        NON-SPHERICAL FULLSPACE
 QS| Number of grid levels:                                                    5
 QS| Density cutoff [a.u.]:                                                600.0
 QS| Multi grid cutoff [a.u.]: 1) grid level                               600.0
 QS|                           2) grid level                               200.0
 QS|                           3) grid level                                66.7
 QS|                           4) grid level                                22.2
 QS|                           5) grid level                                 7.4
 QS| Grid level progression factor:                                          3.0
 QS| Relative density cutoff [a.u.]:                                        40.0
 QS| Interaction thresholds: eps_pgf_orb:                                1.0E-30
 QS|                         eps_filter_matrix:                          0.0E+00
 QS|                         eps_core_charge:                            1.0E-17
 QS|                         eps_rho_gspace:                             1.0E-15
 QS|                         eps_rho_rspace:                             1.0E-15
 QS|                         eps_gvg_rspace:                             3.2E-08
 QS|                         eps_ppl:                                    1.0E-02
 QS|                         eps_ppnl:                                   3.2E-10
 QS| GAPW|      One center basis from orbital basis primitives
 QS| GAPW|                   eps_fit:                                    1.0E-04
 QS| GAPW|                   eps_iso:                                    1.0E-12
 QS| GAPW|                   eps_svd:                                    1.0E-08
 QS| GAPW|                   eps_cpc:                                    1.0E-15
 QS| GAPW|   atom-r-grid: quadrature:                                     GC_LOG
 QS| GAPW|      atom-s-grid:  max l :                                          6
 QS| GAPW|      max_l_rho0 :                                                   2


 ATOMIC KIND INFORMATION

  1. Atomic kind: H                                     Number of atoms:       2

     Orbital Basis Set                                                 def2-TZVP

       Number of orbital shell sets:                                           4
       Number of orbital shells:                                               4
       Number of primitive Cartesian functions:                                6
       Number of Cartesian basis functions:                                    6
       Number of spherical basis functions:                                    6
       Norm type:                                                              2

       Normalised Cartesian orbitals:

                        Set   Shell   Orbital            Exponent    Coefficient

                          1       1    1s               34.061341       0.255630
                                                         5.123575       0.461360
                                                         1.164663       0.681121

                          2       1    1s                0.327230       0.308355

                          3       1    1s                0.103072       0.129648

                          4       1    1px               0.800000       1.078456
                          4       1    1py               0.800000       1.078456
                          4       1    1pz               0.800000       1.078456

       Atomic covalent radius [Angstrom]:                                  0.320

       Atomic van der Waals radius [Angstrom]:                             1.090

     The atoms of this atomic kind are PAW atoms (GAPW):
       Hard Gaussian function radius:                                      1.200
       Rho0 radius:                                                        1.200
       Maximum GTO radius used for PAW projector construction:            24.566

     GAPW Soft Basis Set                                          def2-TZVP_soft

       Number of orbital shell sets:                                           4
       Number of orbital shells:                                               4
       Number of primitive Cartesian functions:                                5
       Number of Cartesian basis functions:                                    6
       Number of spherical basis functions:                                    6
       Norm type:                                                              2

       Normalised Cartesian orbitals:

                        Set   Shell   Orbital            Exponent    Coefficient

                          1       1    1s                5.123575       0.461360
                                                         1.164663       0.681121

                          2       1    1s                0.327230       0.308355

                          3       1    1s                0.103072       0.129648

                          4       1    1px               0.800000       1.078456
                          4       1    1py               0.800000       1.078456
                          4       1    1pz               0.800000       1.078456

     AE Potential information for                                            ALL

       Description:                                       All-electron potential
                                          Krack, Parrinello, PCCP 2, 2105 (2000)

       Gaussian exponent of the core charge distribution:              12.500000
       Electronic configuration (s p d ...):                           1   0   0

  2. Atomic kind: S                                     Number of atoms:       1

     Orbital Basis Set                                                 def2-TZVP

       Number of orbital shell sets:                                          13
       Number of orbital shells:                                              13
       Number of primitive Cartesian functions:                               27
       Number of Cartesian basis functions:                                   42
       Number of spherical basis functions:                                   37
       Norm type:                                                              2

       Normalised Cartesian orbitals:

                        Set   Shell   Orbital            Exponent    Coefficient

                          1       1    1s            60700.928104       1.443686
                                                      9102.610685       2.690342
                                                      2071.416601       4.557613
                                                       586.024768       6.918117
                                                       190.553950       8.681024
                                                        67.630384       7.517583
                                                        25.127307       2.790901

                          2       1    1s              112.574630       2.474372
                                                        34.795554       4.430516
                                                         6.511556      -3.510721

                          3       1    1s                3.239903       1.161718
                                                         1.547716       0.343256

                          4       1    1s                0.405410       0.362102

                          5       1    1s                0.145507       0.167908

                          6       1    1px             564.367160      13.679018
                                                       133.426244      17.895267
                                                        42.468271      19.562932
                                                        15.616528      16.003695
                                                         6.109399       8.381967
                          6       1    1py             564.367160      13.679018
                                                       133.426244      17.895267
                                                        42.468271      19.562932
                                                        15.616528      16.003695
                                                         6.109399       8.381967
                          6       1    1pz             564.367160      13.679018
                                                       133.426244      17.895267
                                                        42.468271      19.562932
                                                        15.616528      16.003695
                                                         6.109399       8.381967

                          7       1    1px               2.440416       4.347804
                          7       1    1py               2.440416       4.347804
                          7       1    1pz               2.440416       4.347804

                          8       1    1px               0.838822       1.144267
                          8       1    1py               0.838822       1.144267
                          8       1    1pz               0.838822       1.144267

                          9       1    1px               0.312887       0.333561
                          9       1    1py               0.312887       0.333561
                          9       1    1pz               0.312887       0.333561

                         10       1    1px               0.107701       0.087946
                         10       1    1py               0.107701       0.087946
                         10       1    1pz               0.107701       0.087946

                         11       1    1dx2              3.756000       3.049853
                                                         0.812000       1.045207
                         11       1    1dxy              3.756000       5.282500
                                                         0.812000       1.810351
                         11       1    1dxz              3.756000       5.282500
                                                         0.812000       1.810351
                         11       1    1dy2              3.756000       3.049853
                                                         0.812000       1.045207
                         11       1    1dyz              3.756000       5.282500
                                                         0.812000       1.810351
                         11       1    1dz2              3.756000       3.049853
                                                         0.812000       1.045207

                         12       1    1dx2              0.273000       0.169705
                         12       1    1dxy              0.273000       0.293937
                         12       1    1dxz              0.273000       0.293937
                         12       1    1dy2              0.273000       0.169705
                         12       1    1dyz              0.273000       0.293937
                         12       1    1dz2              0.273000       0.169705

                         13       1    1fx3              0.557000       0.394574
                         13       1    1fx2y             0.557000       0.882295
                         13       1    1fx2z             0.557000       0.882295
                         13       1    1fxy2             0.557000       0.882295
                         13       1    1fxyz             0.557000       1.528179
                         13       1    1fxz2             0.557000       0.882295
                         13       1    1fy3              0.557000       0.394574
                         13       1    1fy2z             0.557000       0.882295
                         13       1    1fyz2             0.557000       0.882295
                         13       1    1fz3              0.557000       0.394574

       Atomic covalent radius [Angstrom]:                                  1.020

       Atomic van der Waals radius [Angstrom]:                             1.800

     The atoms of this atomic kind are PAW atoms (GAPW):
       Hard Gaussian function radius:                                      1.512
       Rho0 radius:                                                        1.512
       Maximum GTO radius used for PAW projector construction:            24.566

     GAPW Soft Basis Set                                          def2-TZVP_soft

       Number of orbital shell sets:                                          13
       Number of orbital shells:                                              13
       Number of primitive Cartesian functions:                               12
       Number of Cartesian basis functions:                                   42
       Number of spherical basis functions:                                   37
       Norm type:                                                              2

       Normalised Cartesian orbitals:

                        Set   Shell   Orbital            Exponent    Coefficient

                          1       1    1s         

                          2       1    1s         

                          3       1    1s                3.239903       1.161718
                                                         1.547716       0.343256

                          4       1    1s                0.405410       0.362102

                          5       1    1s                0.145507       0.167908

                          6       1    1px        
                          6       1    1py        
                          6       1    1pz        

                          7       1    1px               2.440416       4.347804
                          7       1    1py               2.440416       4.347804
                          7       1    1pz               2.440416       4.347804

                          8       1    1px               0.838822       1.144267
                          8       1    1py               0.838822       1.144267
                          8       1    1pz               0.838822       1.144267

                          9       1    1px               0.312887       0.333561
                          9       1    1py               0.312887       0.333561
                          9       1    1pz               0.312887       0.333561

                         10       1    1px               0.107701       0.087946
                         10       1    1py               0.107701       0.087946
                         10       1    1pz               0.107701       0.087946

                         11       1    1dx2              3.756000       3.049853
                                                         0.812000       1.045207
                         11       1    1dxy              3.756000       5.282500
                                                         0.812000       1.810351
                         11       1    1dxz              3.756000       5.282500
                                                         0.812000       1.810351
                         11       1    1dy2              3.756000       3.049853
                                                         0.812000       1.045207
                         11       1    1dyz              3.756000       5.282500
                                                         0.812000       1.810351
                         11       1    1dz2              3.756000       3.049853
                                                         0.812000       1.045207

                         12       1    1dx2              0.273000       0.169705
                         12       1    1dxy              0.273000       0.293937
                         12       1    1dxz              0.273000       0.293937
                         12       1    1dy2              0.273000       0.169705
                         12       1    1dyz              0.273000       0.293937
                         12       1    1dz2              0.273000       0.169705

                         13       1    1fx3              0.557000       0.394574
                         13       1    1fx2y             0.557000       0.882295
                         13       1    1fx2z             0.557000       0.882295
                         13       1    1fxy2             0.557000       0.882295
                         13       1    1fxyz             0.557000       1.528179
                         13       1    1fxz2             0.557000       0.882295
                         13       1    1fy3              0.557000       0.394574
                         13       1    1fy2z             0.557000       0.882295
                         13       1    1fyz2             0.557000       0.882295
                         13       1    1fz3              0.557000       0.394574

     AE Potential information for                                            ALL

       Description:                                       All-electron potential
                                          Krack, Parrinello, PCCP 2, 2105 (2000)

       Gaussian exponent of the core charge distribution:               2.834467
       Electronic configuration (s p d ...):                           6  10   0


 MOLECULE KIND INFORMATION


 All atoms are their own molecule, skipping detailed information


 TOTAL NUMBERS AND MAXIMUM NUMBERS

  Total number of            - Atomic kinds:                                   2
                             - Atoms:                                          3
                             - Shell sets:                                    21
                             - Shells:                                        21
                             - Primitive Cartesian functions:                 39
                             - Cartesian basis functions:                     54
                             - Spherical basis functions:                     49

  Maximum angular momentum of the orbital basis functions:                     3


 MODULE QUICKSTEP: ATOMIC COORDINATES IN ANGSTROM

   Atom Kind Element         X             Y             Z       Z(eff)     Mass
      1    1 H     1      4.966557      4.000000      4.471859   1.0000   1.0079
      2    1 H     1      3.033443      4.000000      4.471859   1.0000   1.0079
      3    2 S    16      4.000000      4.000000      3.528141  16.0000  32.0650



 SCF PARAMETERS         Density guess:                                    ATOMIC
                        --------------------------------------------------------
                        max_scf:                                              20
                        max_scf_history:                                       0
                        max_diis:                                              4
                        --------------------------------------------------------
                        eps_scf:                                        1.00E-07
                        eps_scf_history:                                0.00E+00
                        eps_diis:                                       1.00E-01
                        eps_eigval:                                     1.00E-05
                        --------------------------------------------------------
                        level_shift [a.u.]:                             0.000000
                        --------------------------------------------------------
                        Outer loop SCF in use 
                        No variables optimised in outer loop
                        eps_scf                                         1.00E-07
                        max_scf                                               50
                        No outer loop optimization
                        step_size                                       5.00E-01

 PW_GRID| Information for grid number                                          1
 PW_GRID| Grid distributed over                                    64 processors
 PW_GRID| Real space group dimensions                                    64    1
 PW_GRID| the grid is blocked:                                                NO
 PW_GRID| Cutoff [a.u.]                                                   1200.0
 PW_GRID| spherical cutoff:                                                   NO
 PW_GRID|   Bounds   1           -120     119                Points:         240
 PW_GRID|   Bounds   2           -120     119                Points:         240
 PW_GRID|   Bounds   3           -120     119                Points:         240
 PW_GRID| Volume element (a.u.^3)  0.2499E-03     Volume (a.u.^3)      3455.1473
 PW_GRID| Grid span                                                    FULLSPACE
 PW_GRID|   Distribution                         Average         Max         Min
 PW_GRID|   G-Vectors                           216000.0      216000      216000
 PW_GRID|   G-Rays                                 900.0         900         900
 PW_GRID|   Real Space Points                   216000.0      230400      172800

 PW_GRID| Information for grid number                                          2
 PW_GRID| Number of the reference grid                                         1
 PW_GRID| Grid distributed over                                    64 processors
 PW_GRID| Real space group dimensions                                    64    1
 PW_GRID| the grid is blocked:                                                NO
 PW_GRID| Cutoff [a.u.]                                                    600.0
 PW_GRID| spherical cutoff:                                                   NO
 PW_GRID|   Bounds   1            -90      89                Points:         180
 PW_GRID|   Bounds   2            -90      89                Points:         180
 PW_GRID|   Bounds   3            -90      89                Points:         180
 PW_GRID| Volume element (a.u.^3)  0.5924E-03     Volume (a.u.^3)      3455.1473
 PW_GRID| Grid span                                                    FULLSPACE
 PW_GRID|   Distribution                         Average         Max         Min
 PW_GRID|   G-Vectors                            91125.0       91440       90720
 PW_GRID|   G-Rays                                 506.2         508         504
 PW_GRID|   Real Space Points                    91125.0       97200       64800

 PW_GRID| Information for grid number                                          3
 PW_GRID| Number of the reference grid                                         2
 PW_GRID| Grid distributed over                                    64 processors
 PW_GRID| Real space group dimensions                                    64    1
 PW_GRID| the grid is blocked:                                                NO
 PW_GRID| Cutoff [a.u.]                                                    200.0
 PW_GRID| spherical cutoff:                                                   NO
 PW_GRID|   Bounds   1            -50      49                Points:         100
 PW_GRID|   Bounds   2            -50      49                Points:         100
 PW_GRID|   Bounds   3            -50      49                Points:         100
 PW_GRID| Volume element (a.u.^3)  0.3455E-02     Volume (a.u.^3)      3455.1473
 PW_GRID| Grid span                                                    FULLSPACE
 PW_GRID|   Distribution                         Average         Max         Min
 PW_GRID|   G-Vectors                            15625.0       15800       15500
 PW_GRID|   G-Rays                                 156.2         158         155
 PW_GRID|   Real Space Points                    15625.0       20000       10000

 PW_GRID| Information for grid number                                          4
 PW_GRID| Number of the reference grid                                         2
 PW_GRID| Grid distributed over                                    64 processors
 PW_GRID| Real space group dimensions                                     8    8
 PW_GRID| the grid is blocked:                                                NO
 PW_GRID| Cutoff [a.u.]                                                     66.7
 PW_GRID| spherical cutoff:                                                   NO
 PW_GRID|   Bounds   1            -30      29                Points:          60
 PW_GRID|   Bounds   2            -30      29                Points:          60
 PW_GRID|   Bounds   3            -30      29                Points:          60
 PW_GRID| Volume element (a.u.^3)  0.1600E-01     Volume (a.u.^3)      3455.1473
 PW_GRID| Grid span                                                    FULLSPACE
 PW_GRID|   Distribution                         Average         Max         Min
 PW_GRID|   G-Vectors                             3375.0        3540        3240
 PW_GRID|   G-Rays                                  56.2          59          54
 PW_GRID|   Real Space Points                     3375.0        3840        2940

 PW_GRID| Information for grid number                                          5
 PW_GRID| Number of the reference grid                                         2
 PW_GRID| Grid distributed over                                    64 processors
 PW_GRID| Real space group dimensions                                     8    8
 PW_GRID| the grid is blocked:                                                NO
 PW_GRID| Cutoff [a.u.]                                                     22.2
 PW_GRID| spherical cutoff:                                                   NO
 PW_GRID|   Bounds   1            -18      17                Points:          36
 PW_GRID|   Bounds   2            -18      17                Points:          36
 PW_GRID|   Bounds   3            -18      17                Points:          36
 PW_GRID| Volume element (a.u.^3)  0.7406E-01     Volume (a.u.^3)      3455.1473
 PW_GRID| Grid span                                                    FULLSPACE
 PW_GRID|   Distribution                         Average         Max         Min
 PW_GRID|   G-Vectors                              729.0         792         684
 PW_GRID|   G-Rays                                  20.2          22          19
 PW_GRID|   Real Space Points                      729.0         900         576

 PW_GRID| Information for grid number                                          6
 PW_GRID| Number of the reference grid                                         2
 PW_GRID| Grid distributed over                                    64 processors
 PW_GRID| Real space group dimensions                                     8    8
 PW_GRID| the grid is blocked:                                                NO
 PW_GRID| Cutoff [a.u.]                                                      7.4
 PW_GRID| spherical cutoff:                                                   NO
 PW_GRID|   Bounds   1            -10       9                Points:          20
 PW_GRID|   Bounds   2            -10       9                Points:          20
 PW_GRID|   Bounds   3            -10       9                Points:          20
 PW_GRID| Volume element (a.u.^3)  0.4319         Volume (a.u.^3)      3455.1473
 PW_GRID| Grid span                                                    FULLSPACE
 PW_GRID|   Distribution                         Average         Max         Min
 PW_GRID|   G-Vectors                              125.0         140         100
 PW_GRID|   G-Rays                                   6.2           7           5
 PW_GRID|   Real Space Points                      125.0         180          80

 POISSON| Solver                                          Martyna-Tuckerman (MT)
 POISSON| MT| Alpha                                                        7.000
 POISSON| MT| Relative cutoff                                                2.0
 POISSON| Periodicity                                                       NONE

 RS_GRID| Information for grid number                                          2
 RS_GRID|   Bounds   1            -90      89                Points:         180
 RS_GRID|   Bounds   2            -90      89                Points:         180
 RS_GRID|   Bounds   3            -90      89                Points:         180
 RS_GRID| Real space distribution over                                  8 groups
 RS_GRID| Real space distribution along direction                              2
 RS_GRID| Border size                                                         46
 RS_GRID| Real space distribution over                                  8 groups
 RS_GRID| Real space distribution along direction                              3
 RS_GRID| Border size                                                         46
 RS_GRID|   Distribution                         Average         Max         Min
 RS_GRID|   Planes                                 114.5         115         114
 RS_GRID|   Distribution                         Average         Max         Min
 RS_GRID|   Planes                                 114.5         115         114

 RS_GRID| Information for grid number                                          3
 RS_GRID|   Bounds   1            -50      49                Points:         100
 RS_GRID|   Bounds   2            -50      49                Points:         100
 RS_GRID|   Bounds   3            -50      49                Points:         100
 RS_GRID| Real space fully replicated
 RS_GRID| Group size                                                           1

 RS_GRID| Information for grid number                                          4
 RS_GRID|   Bounds   1            -30      29                Points:          60
 RS_GRID|   Bounds   2            -30      29                Points:          60
 RS_GRID|   Bounds   3            -30      29                Points:          60
 RS_GRID| Real space fully replicated
 RS_GRID| Group size                                                           1

 RS_GRID| Information for grid number                                          5
 RS_GRID|   Bounds   1            -18      17                Points:          36
 RS_GRID|   Bounds   2            -18      17                Points:          36
 RS_GRID|   Bounds   3            -18      17                Points:          36
 RS_GRID| Real space fully replicated
 RS_GRID| Group size                                                           1

 RS_GRID| Information for grid number                                          6
 RS_GRID|   Bounds   1            -10       9                Points:          20
 RS_GRID|   Bounds   2            -10       9                Points:          20
 RS_GRID|   Bounds   3            -10       9                Points:          20
 RS_GRID| Real space fully replicated
 RS_GRID| Group size                                                           1

 Number of electrons:                                                         18
 Number of occupied orbitals:                                                  9
 Number of molecular orbitals:                                                 9

 Number of orbital functions:                                                 49
 Number of independent orbital functions:                                     49

 Extrapolation method: initial_guess

 Atomic guess: The first density matrix is obtained in terms of atomic orbitals
               and electronic configurations assigned to each atomic kind

 Guess for atomic kind: H

 Electronic structure
    Total number of core electrons                                          0.00
    Total number of valence electrons                                       1.00
    Total number of electrons                                               1.00
    Multiplicity                                                   not specified
    S      1.00
 

 *******************************************************************************
                  Iteration          Convergence                     Energy [au]
 *******************************************************************************
                          1        0.917598E-02                  -0.444895232610
                          2        0.101733E-02                  -0.444969959338
                          3        0.739292E-04                  -0.444971980690
                          4        0.601377E-07                  -0.444971989573

 Energy components [Hartree]           Total Energy ::           -0.444971989573
                                        Band Energy ::           -0.230448725171
                                     Kinetic Energy ::            0.428990089350
                                   Potential Energy ::           -0.873962078923
                                      Virial (-V/T) ::            2.037254707321
                                        Core Energy ::           -0.496265746842
                                          XC Energy ::           -0.234272986041
                                     Coulomb Energy ::            0.285566743311

 Orbital energies  State     L     Occupation   Energy[a.u.]          Energy[eV]

                       1     0          1.000      -0.230449           -6.270829
 

 Total Electron Density at R=0:                                         0.247098

 Guess for atomic kind: S

 Electronic structure
    Total number of core electrons                                          0.00
    Total number of valence electrons                                      16.00
    Total number of electrons                                              16.00
    Multiplicity                                                   not specified
    S      2.00  2.00  2.00
    P      6.00  4.00
 

 *******************************************************************************
                  Iteration          Convergence                     Energy [au]
 *******************************************************************************
                          1        0.760414                    -396.660763946116
                          2        0.373960                    -396.680042640535
                          3        0.415326E-01                -396.691447966171
                          4        0.304933E-02                -396.692099573711
                          5        0.573628E-05                -396.692102327499
                          6        0.168908E-06                -396.692102327504

 Energy components [Hartree]           Total Energy ::         -396.692102327504
                                        Band Energy ::         -227.690891250391
                                     Kinetic Energy ::          397.012572018448
                                   Potential Energy ::         -793.704674345952
                                      Virial (-V/T) ::            1.999192797121
                                        Core Energy ::         -549.302400255813
                                          XC Energy ::          -24.165303573778
                                     Coulomb Energy ::          176.775601502087

 Orbital energies  State     L     Occupation   Energy[a.u.]          Energy[eV]

                       1     0          2.000     -87.767620        -2388.278395
                       2     0          2.000      -7.693639         -209.354567
                       3     0          2.000      -0.628115          -17.091880
 
                       1     1          6.000      -5.745939         -156.354953
                       2     1          4.000      -0.259127           -7.051209
 

 Total Electron Density at R=0:                                      2572.846298
 Re-scaling the density matrix to get the right number of electrons
                  # Electrons              Trace(P)               Scaling factor
                           18                18.000                        1.000


 SCF WAVEFUNCTION OPTIMIZATION

  ----------------------------------- OT ---------------------------------------
  Minimizer      : DIIS                : direct inversion
                                         in the iterative subspace
                                         using   7 DIIS vectors
                                         safer DIIS on
  Preconditioner : FULL_ALL            : diagonalization, state selective
  Precond_solver : DEFAULT
  stepsize       :    0.15000000                  energy_gap     :    0.08000000
  eps_taylor     :   0.10000E-15                  max_taylor     :             4
  ----------------------------------- OT ---------------------------------------

  Step     Update method      Time    Convergence         Total energy    Change
  ------------------------------------------------------------------------------
     1 OT DIIS     0.15E+00   26.2     0.24337865      -396.2450190038 -3.96E+02
     2 OT DIIS     0.15E+00   17.7     0.07898280      -398.7890892609 -2.54E+00
     3 OT DIIS     0.15E+00   18.5     0.02427427      -399.1167446965 -3.28E-01
     4 OT DIIS     0.15E+00   17.2     0.01645209      -399.1581048920 -4.14E-02
     5 OT DIIS     0.15E+00   18.4     0.01036089      -399.1907303192 -3.26E-02
     6 OT DIIS     0.15E+00   18.2     0.00608738      -399.2109251757 -2.02E-02
     7 OT DIIS     0.15E+00   19.1     0.00394672      -399.2197774716 -8.85E-03
     8 OT DIIS     0.15E+00   17.6     0.00272529      -399.2233247215 -3.55E-03
     9 OT DIIS     0.15E+00   17.9     0.00181397      -399.2255720423 -2.25E-03
    10 OT DIIS     0.15E+00   17.9     0.00125772      -399.2259892811 -4.17E-04
    11 OT DIIS     0.15E+00   17.2     0.00077096      -399.2264199975 -4.31E-04
    12 OT DIIS     0.15E+00   17.4     0.00042866      -399.2265475157 -1.28E-04
    13 OT DIIS     0.15E+00   17.5     0.00020813      -399.2265868414 -3.93E-05
    14 OT DIIS     0.15E+00   17.4     0.00012815      -399.2265934933 -6.65E-06
    15 OT DIIS     0.15E+00   18.1     0.00006365      -399.2265965773 -3.08E-06
    16 OT DIIS     0.15E+00   18.3     0.00003604      -399.2265970341 -4.57E-07
    17 OT DIIS     0.15E+00   17.1     0.00002617      -399.2265971597 -1.26E-07
    18 OT DIIS     0.15E+00   17.7     0.00001671      -399.2265972403 -8.05E-08
    19 OT DIIS     0.15E+00   17.0     0.00001053      -399.2265972950 -5.48E-08
    20 OT DIIS     0.15E+00   17.5     0.00000794      -399.2265973127 -1.77E-08

  Leaving inner SCF loop after reaching    20 steps.


  Electronic density on regular grids:        -10.1891968576        7.8108031424
  Core density on regular grids:               18.0000000000       -0.0000000000
  Hard and soft densities (Lebedev):          -19.4501244165      -11.6393240823
  Total Rho_soft + Rho1_hard - Rho1_soft      -17.9999971918
  Total charge density (r-space):               0.0000028082
  Total Rho_soft + Rho0_soft (g-space):         0.0000029473

  Overlap energy of the core charge distribution:               0.00000051073774
  Self energy of the core charge distribution:               -174.76444004657884
  Core Hamiltonian energy:                                   -227.38989116532750
  Hartree energy:                                              41.45607902028300
  Exchange-correlation energy:                                 -4.80970790868704

  GAPW| Exc from hard and soft atomic rho1:                   -21.40926459694995
  GAPW| local Eh = 1 center integrals:                        -12.30937312619966

  Total energy:                                              -399.22659731272222

  outer SCF iter =    1 RMS gradient =   0.79E-05 energy =       -399.2265973127

  ----------------------------------- OT ---------------------------------------
  Minimizer      : DIIS                : direct inversion
                                         in the iterative subspace
                                         using   7 DIIS vectors
                                         safer DIIS on
  Preconditioner : FULL_ALL            : diagonalization, state selective
  Precond_solver : DEFAULT
  stepsize       :    0.15000000                  energy_gap     :    0.08000000
  eps_taylor     :   0.10000E-15                  max_taylor     :             4
  ----------------------------------- OT ---------------------------------------

  Step     Update method      Time    Convergence         Total energy    Change
  ------------------------------------------------------------------------------
     1 OT DIIS     0.15E+00   42.6     0.00000937      -399.2265973318 -1.91E-08
     2 OT DIIS     0.15E+00   11.8     0.00000350      -399.2265973357 -3.87E-09
     3 OT DIIS     0.15E+00   12.1     0.00000102      -399.2265973362 -5.17E-10
     4 OT DIIS     0.15E+00   12.0     0.00000014      -399.2265973363 -1.32E-10
     5 OT DIIS     0.15E+00   11.9     0.00000002      -399.2265973361  1.68E-10

  *** SCF run converged in     5 steps ***


  Electronic density on regular grids:        -10.1891972666        7.8108027334
  Core density on regular grids:               18.0000000000       -0.0000000000
  Hard and soft densities (Lebedev):          -19.4500943355      -11.6392944104
  Total Rho_soft + Rho1_hard - Rho1_soft      -17.9999971917
  Total charge density (r-space):               0.0000028083
  Total Rho_soft + Rho0_soft (g-space):         0.0000029474

  Overlap energy of the core charge distribution:               0.00000051073774
  Self energy of the core charge distribution:               -174.76444004657884
  Core Hamiltonian energy:                                   -227.38987927044039
  Hartree energy:                                              41.45606287922547
  Exchange-correlation energy:                                 -4.80971068852405

  GAPW| Exc from hard and soft atomic rho1:                   -21.40926360889303
  GAPW| local Eh = 1 center integrals:                        -12.30936711166422

  Total energy:                                              -399.22659733613733

  outer SCF iter =    2 RMS gradient =   0.20E-07 energy =       -399.2265973361
  outer SCF loop converged in   2 iterations or   25 steps


 !-----------------------------------------------------------------------------!
                     Mulliken Population Analysis

 #  Atom  Element  Kind  Atomic population                           Net charge
       1     H        1          0.832589                              0.167411
       2     H        1          0.832589                              0.167411
       3     S        2         16.334823                             -0.334823
 # Total charge                             18.000000                  0.000000

 !-----------------------------------------------------------------------------!

 !-----------------------------------------------------------------------------!
                           Hirshfeld Charges

  #Atom  Element  Kind  Ref Charge     Population                    Net charge
      1       H      1       1.000          0.379                         0.621
      2       H      1       1.000          0.379                         0.621
      3       S      2      16.000         17.241                        -1.241

  Total Charge                                                            0.000
 !-----------------------------------------------------------------------------!

 *******************************************************************************
 **                                                                           **
 **         ######## #######   #######   ######## #######  ########           **
 **            ##    ##     ## ##     ## ##       ##   ##     ##              **
 **            ##    ##     ## ##     ## ######   #######     ##              **
 **            ##    ##     ## ##     ## ##       ##          ##              **
 **            ##    #######   #######   ##       ##          ##              **
 **                                                                           **
 *******************************************************************************
 KERNEL|                                                                    FULL
 FUNCTIONAL| PBE:
 FUNCTIONAL| J.P.Perdew, K.Burke, M.Ernzerhof, Phys. Rev. Letter, vol. 77, n 18,
 FUNCTIONAL|  pp. 3865-3868, (1996) {spin unpolarized}                          
 KERNEL| Spin symmetry of excitations                                    Triplet
 TDDFPT| Number of states calculated                                          10
 TDDFPT| Number of Davidson iterations                                        20
 TDDFPT| Davidson iteration convergence                                0.100E-07
 TDDFPT| Max. number of Krylov space vectors                                  60
 TDDFPT| Molecular Orbitals:        Spin       AOs       Occ      Virt     Total
 TDDFPT|                               1        49         9        40        49

 *******************************************************************************
 **                                                                           **
 **                            ####### ####### #######                        **
 **                        #   ##      ##   ## ##                             **
 **                       ###  ######  ##   ## ##                             **
 **                        #       ##  ##   ## ##                             **
 **                            ######  ####### #######                        **
 **                 Based on the xas module from Augustin Bussy               **
 *******************************************************************************
 
 -------------------------------------------------------------------------------
 -                      TDDFPT TRIPLET ENERGIES                                 -
 -------------------------------------------------------------------------------
 
 -------------------------------------------------------------------------------
 -                            TDDFPT Initial Guess                             -
 -------------------------------------------------------------------------------
          State         Occupied      ->      Virtual          Excitation
          number         orbital              orbital          energy (eV)
 -------------------------------------------------------------------------------
             1                9                   10              5.68281
             2                9                   11              6.10403
             3                8                   10              8.50620
             4                8                   11              8.92742
             5                7                   10             10.39890
             6                9                   12             10.57875
             7                7                   11             10.82012
             8                9                   13             11.29254
             9                9                   14             13.16890
            10                9                   15             13.27335

      Number of active states:                                        360
 -------------------------------------------------------------------------------
 
 -------------------------------------------------------------------------------
 -                      TDDFPT WAVEFUNCTION OPTIMIZATION                       -
 -------------------------------------------------------------------------------

          Step            Time         Convergence           Conv. states
 -------------------------------------------------------------------------------

    State    Exc. energy (eV)      Convergence (eV)
        1       5.3320734            -3.5074E-01
        2       5.7778029            -3.2623E-01
        3       7.6279349            -8.7827E-01
        4       8.4424192            -4.8500E-01
        5       9.6424355            -7.5647E-01
        6      10.3426656            -2.3608E-01
        7      10.4045999            -4.1552E-01
        8      10.5228574            -7.6969E-01
        9      12.6969484            -4.7195E-01
       10      12.8595552            -4.1379E-01
 
             1            92.3          3.2276E-02                      0

    State    Exc. energy (eV)      Convergence (eV)
        1       5.2908529            -4.1220E-02
        2       5.7551301            -2.2673E-02
        3       7.5375826            -9.0352E-02
        4       8.3819412            -6.0478E-02
        5       9.5614064            -8.1029E-02
        6      10.2762925            -6.6373E-02
        7      10.3917175            -1.2882E-02
        8      10.4673133            -5.5544E-02
        9      12.6088390            -8.8109E-02
       10      12.8187472            -4.0808E-02
 
             2            93.5          3.3204E-03                      0

    State    Exc. energy (eV)      Convergence (eV)
        1       5.2908407            -1.2270E-05
        2       5.7551232            -6.9083E-06
        3       7.5374405            -1.4211E-04
        4       8.3816968            -2.4442E-04
        5       9.5611778            -2.2854E-04
        6      10.2752489            -1.0436E-03
        7      10.3916873            -3.0203E-05
        8      10.4672689            -4.4344E-05
        9      12.6084922            -3.4680E-04
       10      12.8185556            -1.9157E-04
 
             3            99.5          3.8351E-05                      0

    State    Exc. energy (eV)      Convergence (eV)
        1       5.2908406            -5.2648E-09
        2       5.7551232            -5.5374E-09
        3       7.5374403            -2.6006E-07
        4       8.3816937            -3.0812E-06
        5       9.5611739            -3.8854E-06
        6      10.2752437            -5.2900E-06
        7      10.3916873            -2.5028E-08
        8      10.4672689            -3.3999E-08
        9      12.6084891            -3.1047E-06
       10      12.7965806            -2.1975E-02
 
             4            97.6          8.0757E-04                      5

    State    Exc. energy (eV)      Convergence (eV)
        1       5.2908406            -3.0105E-12
        2       5.7551232            -3.1412E-12
        3       7.5374403            -7.3084E-10
        4       8.3816937            -1.0186E-08
        5       9.5611739            -1.4143E-08
        6      10.2752436            -1.3230E-08
        7      10.3916873            -4.5074E-12
        8      10.4672689            -7.6040E-12
        9      12.6084891            -4.8118E-09
       10      12.6728375            -1.2374E-01
 
             5           106.0          4.5475E-03                      9

    State    Exc. energy (eV)      Convergence (eV)
        1       5.2908406             1.6616E-14
        2       5.7551232             0.0000E+00
        3       7.5374403            -4.3352E-13
        4       8.3816937            -4.3636E-11
        5       9.5611739            -4.8595E-11
        6      10.2752436            -1.5229E-11
        7      10.3916873            -1.5105E-15
        8      10.4672689            -1.5105E-15
        9      12.6084891            -7.8397E-13
       10      12.6708029            -2.0347E-03
 
             6            66.0          7.4773E-05                      9
 ------------------------- Restart Davidson iterations -------------------------

    State    Exc. energy (eV)      Convergence (eV)
        1       5.2908406            -1.1329E-14
        2       5.7551232             0.0000E+00
        3       7.5374403            -1.5105E-15
        4       8.3816937             1.5105E-15
        5       9.5611739             3.0211E-15
        6      10.2752436             1.0574E-14
        7      10.3916873             7.5527E-15
        8      10.4672689            -3.0211E-15
        9      12.6084891             0.0000E+00
       10      12.6708029             0.0000E+00
 
             7            64.7          4.1633E-16                     10
 
 -------------------------------------------------------------------------------
 -  TDDFPT run converged in 7 iteration(s) 
 -------------------------------------------------------------------------------

 R-TDDFPT states of multiplicity 3
 Transition dipoles calculated using length formulation

         State    Excitation        Transition dipole (a.u.)        Oscillator
         number   energy (eV)       x           y           z     strength (a.u.)
         ------------------------------------------------------------------------
 TDDFPT|      1       5.29084   0.0000E+00  0.0000E+00  0.0000E+00   0.00000E+00
 TDDFPT|      2       5.75512   0.0000E+00  0.0000E+00  0.0000E+00   0.00000E+00
 TDDFPT|      3       7.53744   0.0000E+00  0.0000E+00  0.0000E+00   0.00000E+00
 TDDFPT|      4       8.38169   0.0000E+00  0.0000E+00  0.0000E+00   0.00000E+00
 TDDFPT|      5       9.56117   0.0000E+00  0.0000E+00  0.0000E+00   0.00000E+00
 TDDFPT|      6      10.27524   0.0000E+00  0.0000E+00  0.0000E+00   0.00000E+00
 TDDFPT|      7      10.39169   0.0000E+00  0.0000E+00  0.0000E+00   0.00000E+00
 TDDFPT|      8      10.46727   0.0000E+00  0.0000E+00  0.0000E+00   0.00000E+00
 TDDFPT|      9      12.60849   0.0000E+00  0.0000E+00  0.0000E+00   0.00000E+00
 TDDFPT|     10      12.67080   0.0000E+00  0.0000E+00  0.0000E+00   0.00000E+00

 TDDFPT : CheckSum  =  0.111603E+01
 
 -------------------------------------------------------------------------------
 -                            Excitation analysis                              -
 -------------------------------------------------------------------------------
        State             Occupied              Virtual             Excitation
        number             orbital              orbital             amplitude
 -------------------------------------------------------------------------------
             1   5.29084 eV
                                 9                   10               0.998568
             2   5.75512 eV
                                 9                   11               0.997619
                                 9                   13              -0.056756
             3   7.53744 eV
                                 8                   10               0.988746
                                 7                   11               0.116256
                                 9                   17               0.050041
             4   8.38169 eV
                                 8                   11               0.956025
                                 7                   10               0.282200
             5   9.56117 eV
                                 7                   10               0.953095
                                 8                   11              -0.285995
                                 8                   13              -0.055014
             6  10.27524 eV
[...]
 flops     6 x    32 x    37               113664       0.0%    100.0%      0.0%
 flops     6 x     9 x     9               246888       0.0%    100.0%      0.0%
 flops     9 x     9 x     9               260982       0.0%    100.0%      0.0%
 flops    37 x    32 x    37               350464       0.0%    100.0%      0.0%
 flops     6 x     6 x     9               594864       0.0%    100.0%      0.0%
 flops    37 x     9 x     9               761238       0.0%    100.0%      0.0%
 flops     6 x    37 x     9              1222776       0.0%    100.0%      0.0%
 flops    37 x     6 x     9              1222776       0.0%    100.0%      0.0%
 flops     6 x     9 x     6              2282256       0.0%    100.0%      0.0%
 flops     9 x     9 x     6              4086288       0.0%    100.0%      0.0%
 flops    37 x     9 x     6              6785208       0.0%    100.0%      0.0%
 flops     6 x     9 x    37              6785208       0.0%    100.0%      0.0%
 flops    37 x    37 x     9              7540452       0.0%    100.0%      0.0%
 flops     9 x     9 x    37             12599388       0.0%    100.0%      0.0%
 flops    37 x     9 x    37             22473504       0.0%    100.0%      0.0%
 flops inhomo. stacks                           0       0.0%      0.0%      0.0%
 flops total                        67.630148E+06       0.0%    100.0%      0.0%
 flops max/rank                     33.811396E+06       0.0%    100.0%      0.0%
 matmuls inhomo. stacks                         0       0.0%      0.0%      0.0%
 matmuls total                              16604       0.0%    100.0%      0.0%
 number of processed stacks                 15116       0.0%    100.0%      0.0%
 average stack size                                     0.0       1.1       0.0
 marketing flops                    71.377912E+06
 -------------------------------------------------------------------------------
 # multiplications                           1472
 max memory usage/rank             713.678848E+06
 # max total images/rank                        1
 # max 3D layers                                1
 # MPI messages exchanged                 1318912
 MPI messages size (bytes):
  total size                       156.804256E+06
  min size                           0.000000E+00
  max size                          10.952000E+03
  average size                     118.889099E+00
 MPI breakdown and total messages size (bytes):
             size <=      128             1224524                        0
       128 < size <=     8192               89208                100114336
      8192 < size <=    32768                5180                 56689920
     32768 < size <=   131072                   0                        0
    131072 < size <=  4194304                   0                        0
   4194304 < size <= 16777216                   0                        0
  16777216 < size                               0                        0
 -------------------------------------------------------------------------------
 -                                                                             -
 -                      DBCSR MESSAGE PASSING PERFORMANCE                      -
 -                                                                             -
 -------------------------------------------------------------------------------
 ROUTINE             CALLS      AVE VOLUME [Bytes]
 MP_Bcast               22                     12.
 MP_Allreduce         6354                      8.
 MP_Alltoall         18798                   9533.
 MP_ISend            47096                    408.
 MP_IRecv            47096                    131.
 -------------------------------------------------------------------------------

 -------------------------------------------------------------------------------
 -                                                                             -
 -                                DBM STATISTICS                               -
 -                                                                             -
 -------------------------------------------------------------------------------
    M  x    N  x    K                                          COUNT     PERCENT
 -------------------------------------------------------------------------------

 -------------------------------------------------------------------------------
 -                                                                             -
 -                                GRID STATISTICS                              -
 -                                                                             -
 -------------------------------------------------------------------------------
 LP    KERNEL             BACKEND                              COUNT     PERCENT
 2     collocate general  CPU                                  18624      12.40%
 2     integrate general  CPU                                  18240      12.15%
 0     collocate ortho    CPU                                  16128      10.74%
 1     collocate ortho    CPU                                  16128      10.74%
 0     integrate ortho    CPU                                  15840      10.55%
 1     integrate ortho    CPU                                  15840      10.55%
 2     collocate ortho    CPU                                  12600       8.39%
 2     integrate ortho    CPU                                  12375       8.24%
 3     collocate ortho    CPU                                   7728       5.15%
 3     integrate ortho    CPU                                   7590       5.06%
 4     collocate ortho    CPU                                   3192       2.13%
 4     integrate ortho    CPU                                   3135       2.09%
 5     collocate ortho    CPU                                   1008       0.67%
 5     integrate ortho    CPU                                    990       0.66%
 0     collocate general  CPU                                    192       0.13%
 0     integrate general  CPU                                    192       0.13%
 6     collocate ortho    CPU                                    168       0.11%
 6     integrate ortho    CPU                                    165       0.11%
 -------------------------------------------------------------------------------

 MEMORY| Estimated peak process memory [MiB]                                 681

 -------------------------------------------------------------------------------
 ----                             MULTIGRID INFO                            ----
 -------------------------------------------------------------------------------
 count for grid        1:         275645          cutoff [a.u.]          600.00
 count for grid        2:          35634          cutoff [a.u.]          200.00
 count for grid        3:          35324          cutoff [a.u.]           66.67
 count for grid        4:          12200          cutoff [a.u.]           22.22
 count for grid        5:            960          cutoff [a.u.]            7.41
 total gridlevel count  :         359763

 -------------------------------------------------------------------------------
 -                                                                             -
 -                         MESSAGE PASSING PERFORMANCE                         -
 -                                                                             -
 -------------------------------------------------------------------------------

 ROUTINE             CALLS      AVE VOLUME [Bytes]
 MP_Group                6
 MP_Bcast             1468                 247260.
 MP_Allreduce         8145                   7896.
 MP_Sync                86
 MP_Alltoall          4752                2783162.
 MP_SendRecv         42336                  49840.
 MP_ISendRecv        41580                  49840.
 MP_Wait             86661
 MP_comm_split          81
 MP_ISend            40052                 253272.
 MP_IRecv            41392                 245123.
 -------------------------------------------------------------------------------


 -------------------------------------------------------------------------------
 -                                                                             -
 -                           R E F E R E N C E S                               -
 -                                                                             -
 -------------------------------------------------------------------------------
 
 CP2K version 2023.2 (Development Version), the CP2K developers group (2023).
 CP2K is freely available from https://www.cp2k.org/ .

 Kuehne,Thomas D.; Iannuzzi,Marcella; Del Ben,Mauro;
 Rybkin,Vladimir V.; Seewald,Patrick; Stein,Frederick; Laino,Teodoro;
 Khaliullin,Rustam Z.; Schuett,Ole; Schiffmann,Florian; Golze,Dorothea;
 Wilhelm,Jan; Chulkov,Sergey; Bani-Hashemian,Mohammad Hossein;
 Weber,Valery; Borstnik,Urban; Taillefumier,Mathieu;
 Jakobovits,Alice Shoshana; Lazzaro,Alfio; Pabst,Hans; Mueller,Tiziano;
 Schade,Robert; Guidon,Manuel; Andermatt,Samuel; Holmberg,Nico;
 Schenter,Gregory K.; Hehn,Anna; Bussy,Augustin; Belleflamme,Fabian;
 Tabacchi,Gloria; Gloess,Andreas; Lass,Michael; Bethune,Iain;
 Mundy,Christopher J.; Plessl,Christian; Watkins,Matt;
 VandeVondele,Joost; Krack,Matthias; Hutter,Juerg. 
 The Journal of Chemical Physics, 152 (19), (2020). 
 CP2K: An electronic structure and molecular dynamics software package -
 Quickstep: Efficient and accurate electronic structure calculations.
 https://doi.org/10.1063/5.0007045

 Schuett, Ole; Messmer, Peter; Hutter, Juerg; VandeVondele, Joost. 
 Electronic Structure Calculations on Graphics Processing Units, John
 Wiley & Sons, Ltd, 173-190 (2016). 
 GPU-Accelerated Sparse Matrix-Matrix Multiplication for
 Linear Scaling Density Functional Theory.
 https://doi.org/10.1002/9781118670712.ch8

 Heinecke, A; Henry, G; Hutchinson, M; Pabst, H. 
 Proceedings of Intl. Supercomputing Conference, 981-991 (2016). 
 LIBXSMM: Accelerating Small Matrix Multiplications
 by Runtime Code Generation.
 https://doi.org/10.1109/SC.2016.83

 Borstnik, U; VandeVondele, J; Weber, V; Hutter, J. 
 PARALLEL COMPUTING, 40 (5-6), 47-58 (2014). 
 Sparse matrix multiplication: The distributed block-compressed sparse
 row library.
 https://doi.org/10.1016/j.parco.2014.03.012

 Hutter, J; Iannuzzi, M; Schiffmann, F; VandeVondele, J. 
 WIREs Comput Mol Sci., 4 (1), 15-25 (2014). 
 CP2K: atomistic simulations of condensed matter systems.
 https://doi.org/10.1002/wcms.1159

 Frigo, M; Johnson, SG. 
 PROCEEDINGS OF THE IEEE, 93 (2), 216-231 (2005). 
 The design and implementation of FFTW3.
 https://doi.org/10.1109/JPROC.2004.840301

 Iannuzzi, M; Chassaing, T; Wallman, T; Hutter, J. 
 CHIMIA, 59 (7-8), 499-503 (2005). 
 Ground and excited state density functional calculations with the
 Gaussian and augmented-plane-wave method.
 https://doi.org/10.2533/000942905777676164

 VandeVondele, J; Hutter, J. 
 JOURNAL OF CHEMICAL PHYSICS, 118 (10), 4365-4369 (2003). 
 An efficient orbital transformation method for electronic structure
 calculations.
 https://doi.org/10.1063/1.1543154

 Martin,Richard L.. 
 The Journal of Chemical Physics, 118 (11), 4775-4777 (2003). 
 Natural transition orbitals.
 https://doi.org/10.1063/1.1558471

 Lippert, G; Hutter, J; Parrinello, M. 
 THEORETICAL CHEMISTRY ACCOUNTS, 103 (2), 124-140 (1999). 
 The Gaussian and augmented-plane-wave density functional method for ab
 initio molecular dynamics simulations.
 https://doi.org/10.1007/s002140050523

 Krack, M; Parrinello, M. 
 PHYSICAL CHEMISTRY CHEMICAL PHYSICS, 2 (10), 2105-2112 (2000). 
 All-electron ab-initio molecular dynamics.
 https://doi.org/10.1039/b001167n

 Martyna, GJ; Tuckerman, ME. 
 JOURNAL OF CHEMICAL PHYSICS, 110 (6), 2810-2821 (1999). 
 A reciprocal space based method for treating long range interactions in
 ab initio and force-field-based calculations in clusters.
 https://doi.org/10.1063/1.477923

 Perdew, JP; Burke, K; Ernzerhof, M. 
 PHYSICAL REVIEW LETTERS, 77 (18), 3865-3868 (1996). 
 Generalized gradient approximation made simple.
 https://doi.org/10.1103/PhysRevLett.77.3865


 -------------------------------------------------------------------------------
 -                                                                             -
 -                                T I M I N G                                  -
 -                                                                             -
 -------------------------------------------------------------------------------
 SUBROUTINE                       CALLS  ASD         SELF TIME        TOTAL TIME
                                MAXIMUM       AVERAGE  MAXIMUM  AVERAGE  MAXIMUM
 CP2K                                 1  1.0    0.018    0.043 1892.815 1892.825
 qs_energies                          1  2.0    0.011    0.027 1891.118 1891.137
 qs_energies_properties               1  3.0    0.000    0.000 1444.620 1444.636
 tddfpt                               1  4.0    0.034    0.052 1444.620 1444.636
 tddfpt_soc_energies                  1  5.0    0.000    0.001 1438.499 1438.519
 tddfpt_energies                      2  6.0    0.000    0.002 1399.404 1399.418
 tddfpt_davidson_solver               4  7.0    0.003    0.022 1311.113 1311.132
 tddfpt_compute_Aop_evects           14  8.0    0.000    0.011  935.098  935.209
 fhxc_kernel                         14  9.0    0.005    0.015  777.908  777.993
 dbcsr_multiply_generic            1472 10.7    0.128    0.184  660.275  671.579
 cp_dbcsr_sm_fm_multiply            606  9.3    0.008    0.019  604.478  609.175
 scf_env_do_scf                       1  3.0    0.000    0.011  438.990  439.019
 scf_env_do_scf_inner_loop           25  4.0    0.003    0.056  409.740  409.759
 dbcsr_complete_redistribute       1750 11.4    0.069    0.157  332.951  342.460
 qs_scf_new_mos                      25  5.0    0.000    0.011  312.877  313.165
 qs_scf_loop_do_ot                   25  6.0    0.000    0.000  312.877  313.165
 multiply_cannon                   1472 11.7    4.239    4.636  299.337  310.719
 ot_scf_mini                         25  7.0    0.001    0.012  299.073  299.450
 tddfpt_orthonormalize_psi1_psi      16  7.9    0.009    0.049  287.908  290.120
 copy_dbcsr_to_fm                   682 10.2    0.009    0.064  282.005  287.561
 pw_transfer                       3690 12.2    0.194    0.231  276.908  278.695
 fft_wrap_pw1pw2                   3403 13.2    0.017    0.028  276.263  278.066
 fft3d_ps                          3403 15.2   12.113   13.168  271.955  273.841
 multiply_cannon_loop              1472 12.7    0.406    0.548  247.952  257.961
 multiply_cannon_multrec          11776 13.7  206.230  229.891  206.236  229.907
 cp_dbcsr_sm_fm_multiply_core       606 10.3    0.001    0.001  220.373  229.228
 mp_sum_l                          6401 11.1  214.900  221.121  214.900  221.121
 ot_mini                             25  8.0    0.003    0.016  197.246  197.599
 qs_rho_update_rho_low              168  9.2    0.004    0.022  195.332  196.289
 cp_dbcsr_plus_fm_fm_t_native       141 10.0    0.002    0.013  191.796  192.728
 copy_fm_to_dbcsr                  1068 10.6    0.004    0.014  185.039  192.039
 mp_alltoall_z22v                  3403 17.2  178.405  184.292  178.405  184.292
 mp_alltoall_d11v                  7713 12.6  151.233  163.893  151.233  163.893
 fft_wrap_pw1pw2_600               2070 14.4    1.785    2.033  161.457  163.364
 calculate_rho_elec                 168 10.2    0.086    0.100  159.907  160.998
 qs_ot_get_derivative                25  9.0    0.000    0.013  160.523  160.819
 tddfpt_apply_energy_diff            14  9.0    0.001    0.001  157.190  157.285
 integrate_v_rspace                 165  9.8    0.003    0.004  150.413  153.027
 potential_pw2rs                    165 10.8    0.012    0.033  143.756  144.310
 dbcsr_desymmetrize_deep            683 11.2    0.016    0.064  133.593  139.135
 mp_alltoall_i22                   2460 12.3  127.844  137.149  127.844  137.149
 mp_sum_dv                         4675 10.3  132.794  136.968  132.794  136.968
 density_rs2pw                      168 11.2    0.009    0.028  133.018  134.681
 cp_fm_trace_a1b1t1_aa             3880  9.0    9.011   14.603  132.334  134.028
 make_m2s                          2944 11.7    0.025    0.055  101.215  112.187
 mp_waitall_1                    163029 14.6   79.139  109.900   79.139  109.900
 make_images                       2944 12.7    8.415    9.185  100.412  109.076
 qs_ot_get_derivative_diag           19 10.0    0.001    0.011  103.783  104.106
 tddfpt_compute_residual_vects       10  8.0    0.001    0.011   99.772  100.004
 tddfpt_apply_xc_analytic           140 10.0    0.116    0.154   97.599   97.877
 mp_alltoall_i11v                  6014 12.4   94.324   96.119   94.324   96.119
 xc_pw_derive                      1209 11.7    0.008    0.018   93.256   95.290
 make_images_sizes                 2944 13.7    0.003    0.013   90.821   93.631
 mp_alltoall_i44                   2944 14.7   90.818   93.628   90.818   93.628
 x_to_yz                           1307 16.0    4.501    4.865   89.992   91.253
 transfer_pw2rs                     921 11.8    0.006    0.018   83.717   84.484
 yz_to_x                           1097 16.7    0.526    0.617   79.522   82.621
 mp_cart_sub                       1373 12.2   73.718   77.767   73.718   77.767
 mp_alltoall_z11v                   999 17.0   71.575   73.246   71.575   73.246
 qs_ks_update_qs_env                 27  5.0    0.000    0.000   72.153   72.506
 rebuild_ks_matrix                   25  6.0    0.000    0.000   72.003   72.369
 qs_ks_build_kohn_sham_matrix        25  7.0    0.017    0.044   72.003   72.369
 qs_ot_get_p                         27  7.9    0.000    0.014   69.076   69.468
 transfer_rs2pw                     938 12.1    0.008    0.019   65.673   66.885
 hybrid_alltoall_any               3627 14.3    0.031    0.332   53.013   59.935
 tddfpt_print_nto_analysis            2  7.0    0.004    0.013   57.844   58.150
 xc_pw_divergence                   165 11.7    0.003    0.014   53.619   55.448
 mp_sum_dm                         1410 11.1   52.015   52.397   52.015   52.397
 xc_calc_2nd_deriv_analytical       420 11.1    5.625    6.380   51.623   52.087
 mp_waitany                       40052 13.8   49.797   51.652   49.797   51.652
 mp_allgather_i34                  1472 12.7   46.160   48.653   46.160   48.653
 transfer_pw2rs_600                 261 12.6    8.661    9.507   46.120   47.143
 mp_cart_create                     691 12.1   41.268   45.286   41.268   45.286
 multiply_cannon_metrocomm1       11776 13.7    0.025    0.046   25.843   44.485
 tddfpt_apply_coulomb                70 10.0    0.001    0.012   41.500   42.097
 mp_sum_b                          1552 11.6   38.470   39.274   38.470   39.274
 yz_to_xz                           495 15.8    1.221    1.404   37.378   38.499
 mp_sum_d                          1489  8.0   36.394   38.398   36.394   38.398
 tddfpt_soc                           1  6.0    0.000    0.010   38.215   38.225
 tddfpt_soc_rcs                       1  7.0    0.009    0.035   38.215   38.225
 xz_to_yz                           504 16.2    1.330    1.491   36.982   38.184
 -------------------------------------------------------------------------------

 The number of warnings for this run is : 2
 
 -------------------------------------------------------------------------------
  **** **** ******  **  PROGRAM ENDED AT                 2023-12-05 17:46:09.168
 ***** ** ***  *** **   PROGRAM RAN ON                               nesh-clk547
 **    ****   ******    PROGRAM RAN BY                                  suphc355
 ***** **    ** ** **   PROGRAM PROCESS ID                               2877507
  **** **  *******  **  PROGRAM STOPPED IN /gxfs_work/cau/suphc355/homologes/H2X
                                           /AE/S
