 DBCSR| CPU Multiplication driver                                           XSMM (U)
 DBCSR| Multrec recursion limit                                              512 (U)
 DBCSR| Multiplication stack size                                           1000 (D)
 DBCSR| Maximum elements for images                                    UNLIMITED (U)
 DBCSR| Multiplicative factor virtual images                                   1 (U)
 DBCSR| Use multiplication densification                                       T (D)
 DBCSR| Multiplication size stacks                                             3 (U)
 DBCSR| Use memory pool for CPU allocation                                     F (U)
 DBCSR| Number of 3D layers                                               SINGLE (U)
 DBCSR| Use MPI memory allocation                                              F (U)
 DBCSR| Use RMA algorithm                                                      F (U)
 DBCSR| Use Communication thread                                               T (U)
 DBCSR| Communication thread load                                             87 (D)
 DBCSR| MPI: My process id                                                     0
 DBCSR| MPI: Number of processes                                             128
 DBCSR| OMP: Current number of threads                                         1
 DBCSR| OMP: Max number of threads                                             1
 DBCSR| Split modifier for TAS multiplication algorithm                  1.0E+00 (U)


  **** **** ******  **  PROGRAM STARTED AT               2024-02-01 09:07:11.240
 ***** ** ***  *** **   PROGRAM STARTED ON                           nesh-srp120
 **    ****   ******    PROGRAM STARTED BY                              suphc355
 ***** **    ** ** **   PROGRAM PROCESS ID                                445647
  **** **  *******  **  PROGRAM STARTED IN /gxfs_work/cau/suphc355/homologes/H2X
                                           /AE/S

 CP2K| version string:                 CP2K version 2024.1 (Development Version)
 CP2K| source code revision number:                                  git:b6f9133
 CP2K| cp2kflags: omp libint fftw3 libxc libgrpp parallel mpi_f08 scalapack cosm
 CP2K|            a xsmm spglib mkl
 CP2K| is freely available from                            https://www.cp2k.org/
 CP2K| Program compiled at                          Fr 26. Jan 09:14:30 CET 2024
 CP2K| Program compiled on                                           nesh-login3
 CP2K| Program compiled for                                                local
 CP2K| Data directory path            /gxfs_home/cau/suphc355/software/cp2k/data
 CP2K| Input file name                                                    AE.inp
 
 GLOBAL| Force Environment number                                              1
 GLOBAL| Basis set file name                                 ../../../basis_zora
 GLOBAL| Potential file name                                           POTENTIAL
 GLOBAL| MM Potential file name                                     MM_POTENTIAL
 GLOBAL| Coordinate file name                                            opt.xyz
 GLOBAL| Method name                                                        CP2K
 GLOBAL| Project name                                                     H2S_AE
 GLOBAL| Run type                                                         ENERGY
 GLOBAL| FFT library                                                       FFTW3
 GLOBAL| Diagonalization library                                       ScaLAPACK
 GLOBAL| DGEMM library                                                      BLAS
 GLOBAL| Orthonormality check for eigenvectors                          DISABLED
 GLOBAL| Matrix multiplication library                                     COSMA
 GLOBAL| All-to-all communication in single precision                          F
 GLOBAL| FFTs using library dependent lengths                                  F
 GLOBAL| Grid backend                                                       AUTO
 GLOBAL| Global print level                                               MEDIUM
 GLOBAL| MPI I/O enabled                                                       T
 GLOBAL| Total number of message passing processes                           128
 GLOBAL| Number of threads for this process                                    1
 GLOBAL| This output is from process                                           0
 GLOBAL| Stack size for threads created by OpenMP (OMP_STACKSIZE)        default
 GLOBAL| CPU model name                              Intel(R) Xeon(R) Gold 6426Y
 GLOBAL| CPUID                                                              1003

 MEMORY| system memory details [Kb]
 MEMORY|                        rank 0           min           max       average
 MEMORY| MemTotal            263786136     263786136     263786136     263786136
 MEMORY| MemFree             243205144     243205144     243510820     243358037
 MEMORY| Buffers                943476        853676        943640        898852
 MEMORY| Cached                 884240        707940        884240        784382
 MEMORY| Slab                   567412        555688        568956        562111
 MEMORY| SReclaimable           145084        129644        145084        136981
 MEMORY| MemLikelyFree       245177944     245119696     245234152     245178253


 *** Fundamental physical constants (SI units) ***

 *** Literature: B. J. Mohr and B. N. Taylor,
 ***             CODATA recommended values of the fundamental physical
 ***             constants: 2006, Web Version 5.1
 ***             http://physics.nist.gov/constants

 Speed of light in vacuum [m/s]                             2.99792458000000E+08
 Magnetic constant or permeability of vacuum [N/A**2]       1.25663706143592E-06
 Electric constant or permittivity of vacuum [F/m]          8.85418781762039E-12
 Planck constant (h) [J*s]                                  6.62606896000000E-34
 Planck constant (h-bar) [J*s]                              1.05457162825177E-34
 Elementary charge [C]                                      1.60217648700000E-19
 Electron mass [kg]                                         9.10938215000000E-31
 Electron g factor [ ]                                     -2.00231930436220E+00
 Proton mass [kg]                                           1.67262163700000E-27
 Fine-structure constant                                    7.29735253760000E-03
 Rydberg constant [1/m]                                     1.09737315685270E+07
 Avogadro constant [1/mol]                                  6.02214179000000E+23
 Boltzmann constant [J/K]                                   1.38065040000000E-23
 Atomic mass unit [kg]                                      1.66053878200000E-27
 Bohr radius [m]                                            5.29177208590000E-11

 *** Conversion factors ***

 [u] -> [a.u.]                                              1.82288848426455E+03
 [Angstrom] -> [Bohr] = [a.u.]                              1.88972613288564E+00
 [a.u.] = [Bohr] -> [Angstrom]                              5.29177208590000E-01
 [a.u.] -> [s]                                              2.41888432650478E-17
 [a.u.] -> [fs]                                             2.41888432650478E-02
 [a.u.] -> [J]                                              4.35974393937059E-18
 [a.u.] -> [N]                                              8.23872205491840E-08
 [a.u.] -> [K]                                              3.15774647902944E+05
 [a.u.] -> [kJ/mol]                                         2.62549961709828E+03
 [a.u.] -> [kcal/mol]                                       6.27509468713739E+02
 [a.u.] -> [Pa]                                             2.94210107994716E+13
 [a.u.] -> [bar]                                            2.94210107994716E+08
 [a.u.] -> [atm]                                            2.90362800883016E+08
 [a.u.] -> [eV]                                             2.72113838565563E+01
 [a.u.] -> [Hz]                                             6.57968392072181E+15
 [a.u.] -> [1/cm] (wave numbers)                            2.19474631370540E+05
 [a.u./Bohr**2] -> [1/cm]                                   5.14048714338585E+03
 

 CELL_TOP| Volume [angstrom^3]:                                      8000.000000
 CELL_TOP| Vector a [angstrom    20.000     0.000     0.000   |a| =    20.000000
 CELL_TOP| Vector b [angstrom     0.000    20.000     0.000   |b| =    20.000000
 CELL_TOP| Vector c [angstrom     0.000     0.000    20.000   |c| =    20.000000
 CELL_TOP| Angle (b,c), alpha [degree]:                                90.000000
 CELL_TOP| Angle (a,c), beta  [degree]:                                90.000000
 CELL_TOP| Angle (a,b), gamma [degree]:                                90.000000
 CELL_TOP| Numerically orthorhombic:                                         YES
 CELL_TOP| Periodicity                                                      NONE
 
 GENERATE|  Preliminary Number of Bonds generated:                             0
 GENERATE|  Achieved consistency in connectivity generation.

 CELL| Volume [angstrom^3]:                                          8000.000000
 CELL| Vector a [angstrom]:      20.000     0.000     0.000   |a| =    20.000000
 CELL| Vector b [angstrom]:       0.000    20.000     0.000   |b| =    20.000000
 CELL| Vector c [angstrom]:       0.000     0.000    20.000   |c| =    20.000000
 CELL| Angle (b,c), alpha [degree]:                                    90.000000
 CELL| Angle (a,c), beta  [degree]:                                    90.000000
 CELL| Angle (a,b), gamma [degree]:                                    90.000000
 CELL| Numerically orthorhombic:                                             YES
 CELL| Periodicity                                                          NONE

 CELL_REF| Volume [angstrom^3]:                                      8000.000000
 CELL_REF| Vector a [angstrom    20.000     0.000     0.000   |a| =    20.000000
 CELL_REF| Vector b [angstrom     0.000    20.000     0.000   |b| =    20.000000
 CELL_REF| Vector c [angstrom     0.000     0.000    20.000   |c| =    20.000000
 CELL_REF| Angle (b,c), alpha [degree]:                                90.000000
 CELL_REF| Angle (a,c), beta  [degree]:                                90.000000
 CELL_REF| Angle (a,b), gamma [degree]:                                90.000000
 CELL_REF| Numerically orthorhombic:                                         YES
 CELL_REF| Periodicity                                                      NONE

 *******************************************************************************
 *******************************************************************************
 **                                                                           **
 **     #####                         ##              ##                      **
 **    ##   ##            ##          ##              ##                      **
 **   ##     ##                       ##            ######                    **
 **   ##     ##  ##   ##  ##   #####  ##  ##   ####   ##    #####    #####    **
 **   ##     ##  ##   ##  ##  ##      ## ##   ##      ##   ##   ##  ##   ##   **
 **   ##  ## ##  ##   ##  ##  ##      ####     ###    ##   ######   ######    **
 **    ##  ###   ##   ##  ##  ##      ## ##      ##   ##   ##       ##        **
 **     #######   #####   ##   #####  ##  ##  ####    ##    #####   ##        **
 **           ##                                                    ##        **
 **                                                                           **
 **                                                ... make the atoms dance   **
 **                                                                           **
 **            Copyright (C) by CP2K developers group (2000-2024)             **
 **                      J. Chem. Phys. 152, 194103 (2020)                    **
 **                                                                           **
 *******************************************************************************

 DFT| Spin restricted Kohn-Sham (RKS) calculation                            RKS
 DFT| Multiplicity                                                             1
 DFT| Number of spin states                                                    1
 DFT| Charge                                                                   0
 DFT| Self-interaction correction (SIC)                                       NO
 DFT| Cutoffs: density                                              1.000000E-10
 DFT|          gradient                                             1.000000E-10
 DFT|          tau                                                  1.000000E-10
 DFT|          cutoff_smoothing_range                               0.000000E+00
 DFT| XC density smoothing                                                  NONE
 DFT| XC derivatives                                                          PW

 FUNCTIONAL| PBE:
 FUNCTIONAL| J.P.Perdew, K.Burke, M.Ernzerhof, Phys. Rev. Letter, vol. 77, n 18,
 FUNCTIONAL|  pp. 3865-3868, (1996)sx=0.750sc=1.000{spin unpolarized}           


 QS| Method:                                                                GAPW
 QS| Density plane wave grid type                        NON-SPHERICAL FULLSPACE
 QS| Number of grid levels:                                                    5
 QS| Density cutoff [a.u.]:                                                600.0
 QS| Multi grid cutoff [a.u.]: 1) grid level                               600.0
 QS|                           2) grid level                               200.0
 QS|                           3) grid level                                66.7
 QS|                           4) grid level                                22.2
 QS|                           5) grid level                                 7.4
 QS| Grid level progression factor:                                          3.0
 QS| Relative density cutoff [a.u.]:                                        40.0
 QS| Interaction thresholds: eps_pgf_orb:                                1.0E-30
 QS|                         eps_filter_matrix:                          0.0E+00
 QS|                         eps_core_charge:                            1.0E-17
 QS|                         eps_rho_gspace:                             1.0E-15
 QS|                         eps_rho_rspace:                             1.0E-15
 QS|                         eps_gvg_rspace:                             3.2E-08
 QS|                         eps_ppl:                                    1.0E-02
 QS|                         eps_ppnl:                                   3.2E-10
 QS| GAPW|      One center basis from orbital basis primitives
 QS| GAPW|                   eps_fit:                                    1.0E-04
 QS| GAPW|                   eps_iso:                                    1.0E-12
 QS| GAPW|                   eps_svd:                                    1.0E-08
 QS| GAPW|                   eps_cpc:                                    1.0E-15
 QS| GAPW|   atom-r-grid: quadrature:                                     GC_LOG
 QS| GAPW|      atom-s-grid:  max l :                                          6
 QS| GAPW|      max_l_rho0 :                                                   2


 ATOMIC KIND INFORMATION

  1. Atomic kind: H                                     Number of atoms:       2

     Orbital Basis Set                                                  TZP-ZORA

       Number of orbital shell sets:                                           6
       Number of orbital shells:                                               6
       Number of primitive Cartesian functions:                                8
       Number of Cartesian basis functions:                                   15
       Number of spherical basis functions:                                   14
       Norm type:                                                              2

       Normalised Cartesian orbitals:

                        Set   Shell   Orbital            Exponent    Coefficient

                          1       1    1s               34.877584       0.254499
                                                         5.233973       0.449285
                                                         1.185033       0.695456

                          2       1    1s                0.328339       0.309138

                          3       1    1s                0.110319       0.136426

                          4       1    1px               0.718844       0.943482
                          4       1    1py               0.718844       0.943482
                          4       1    1pz               0.718844       0.943482

                          5       1    1px               0.350000       0.383729
                          5       1    1py               0.350000       0.383729
                          5       1    1pz               0.350000       0.383729

                          6       1    1dx2              1.075060       1.868171
                          6       1    1dxy              1.075060       3.235768
                          6       1    1dxz              1.075060       3.235768
                          6       1    1dy2              1.075060       1.868171
                          6       1    1dyz              1.075060       3.235768
                          6       1    1dz2              1.075060       1.868171

       Atomic covalent radius [Angstrom]:                                  0.320

       Atomic van der Waals radius [Angstrom]:                             1.090

     The atoms of this atomic kind are PAW atoms (GAPW):
       Hard Gaussian function radius:                                      1.200
       Rho0 radius:                                                        1.200
       Maximum GTO radius used for PAW projector construction:            24.566

     GAPW Soft Basis Set                                           TZP-ZORA_soft

       Number of orbital shell sets:                                           6
       Number of orbital shells:                                               6
       Number of primitive Cartesian functions:                                7
       Number of Cartesian basis functions:                                   15
       Number of spherical basis functions:                                   14
       Norm type:                                                              2

       Normalised Cartesian orbitals:

                        Set   Shell   Orbital            Exponent    Coefficient

                          1       1    1s                5.233973       0.449285
                                                         1.185033       0.695456

                          2       1    1s                0.328339       0.309138

                          3       1    1s                0.110319       0.136426

                          4       1    1px               0.718844       0.943482
                          4       1    1py               0.718844       0.943482
                          4       1    1pz               0.718844       0.943482

                          5       1    1px               0.350000       0.383729
                          5       1    1py               0.350000       0.383729
                          5       1    1pz               0.350000       0.383729

                          6       1    1dx2              1.075060       1.868171
                          6       1    1dxy              1.075060       3.235768
                          6       1    1dxz              1.075060       3.235768
                          6       1    1dy2              1.075060       1.868171
                          6       1    1dyz              1.075060       3.235768
                          6       1    1dz2              1.075060       1.868171

     AE Potential information for                                            ALL

       Description:                                       All-electron potential
                                          Krack, Parrinello, PCCP 2, 2105 (2000)

       Gaussian exponent of the core charge distribution:              12.500000
       Electronic configuration (s p d ...):                           1   0   0

  2. Atomic kind: S                                     Number of atoms:       1

     Orbital Basis Set                                                  TZP-ZORA

       Number of orbital shell sets:                                          16
       Number of orbital shells:                                              16
       Number of primitive Cartesian functions:                               26
       Number of Cartesian basis functions:                                   45
       Number of spherical basis functions:                                   40
       Norm type:                                                              2

       Normalised Cartesian orbitals:

                        Set   Shell   Orbital            Exponent    Coefficient

                          1       1    1s           131334.981146      10.441701
                                                     20181.900419      16.179351
                                                      4835.704631      25.099201
                                                      1439.738154      38.502832
                                                       476.154263      55.742865

                          2       1    1s              168.682520      33.358972

                          3       1    1s               62.922540      15.922629

                          4       1    1s               24.333300       7.808378

                          5       1    1s                6.865738       3.022912

                          6       1    1s                3.374956      -1.169784
                                                         1.517499      -0.357770

                          7       1    1s                0.446515       0.389302

                          8       1    1s                0.161742       0.181772

                          9       1    1px             754.152359      10.271879
                                                       193.633447      12.718958
                                                        64.141062      15.240188
                                                        23.757144      14.650983
                                                         9.452343       9.664480
                                                         3.939968       3.799949
                          9       1    1py             754.152359      10.271879
                                                       193.633447      12.718958
                                                        64.141062      15.240188
                                                        23.757144      14.650983
                                                         9.452343       9.664480
                                                         3.939968       3.799949
                          9       1    1pz             754.152359      10.271879
                                                       193.633447      12.718958
                                                        64.141062      15.240188
                                                        23.757144      14.650983
                                                         9.452343       9.664480
                                                         3.939968       3.799949

                         10       1    1px               1.720806       2.809343
                         10       1    1py               1.720806       2.809343
                         10       1    1pz               1.720806       2.809343

                         11       1    1px               0.770763       1.029417
                         11       1    1py               0.770763       1.029417
                         11       1    1pz               0.770763       1.029417

                         12       1    1px               0.287374       0.299916
                         12       1    1py               0.287374       0.299916
                         12       1    1pz               0.287374       0.299916

                         13       1    1px               0.101132       0.081293
                         13       1    1py               0.101132       0.081293
                         13       1    1pz               0.101132       0.081293

                         14       1    1dx2              0.781337       1.068751
                         14       1    1dxy              0.781337       1.851131
                         14       1    1dxz              0.781337       1.851131
                         14       1    1dy2              0.781337       1.068751
                         14       1    1dyz              0.781337       1.851131
                         14       1    1dz2              0.781337       1.068751

                         15       1    1dx2              0.264839       0.160927
                         15       1    1dxy              0.264839       0.278733
                         15       1    1dxz              0.264839       0.278733
                         15       1    1dy2              0.264839       0.160927
                         15       1    1dyz              0.264839       0.278733
                         15       1    1dz2              0.264839       0.160927

                         16       1    1fx3              0.583790       0.438563
                         16       1    1fx2y             0.583790       0.980657
                         16       1    1fx2z             0.583790       0.980657
                         16       1    1fxy2             0.583790       0.980657
                         16       1    1fxyz             0.583790       1.698547
                         16       1    1fxz2             0.583790       0.980657
                         16       1    1fy3              0.583790       0.438563
                         16       1    1fy2z             0.583790       0.980657
                         16       1    1fyz2             0.583790       0.980657
                         16       1    1fz3              0.583790       0.438563

       Atomic covalent radius [Angstrom]:                                  1.020

       Atomic van der Waals radius [Angstrom]:                             1.800

     The atoms of this atomic kind are PAW atoms (GAPW):
       Hard Gaussian function radius:                                      1.512
       Rho0 radius:                                                        1.512
       Maximum GTO radius used for PAW projector construction:            24.566

     GAPW Soft Basis Set                                           TZP-ZORA_soft

       Number of orbital shell sets:                                          16
       Number of orbital shells:                                              16
       Number of primitive Cartesian functions:                               12
       Number of Cartesian basis functions:                                   45
       Number of spherical basis functions:                                   40
       Norm type:                                                              2

       Normalised Cartesian orbitals:

                        Set   Shell   Orbital            Exponent    Coefficient

                          1       1    1s         

                          2       1    1s         

                          3       1    1s         

                          4       1    1s         

                          5       1    1s         

                          6       1    1s                3.374956      -1.169784
                                                         1.517499      -0.357770

                          7       1    1s                0.446515       0.389302

                          8       1    1s                0.161742       0.181772

                          9       1    1px               3.939968       3.799949
                          9       1    1py               3.939968       3.799949
                          9       1    1pz               3.939968       3.799949

                         10       1    1px               1.720806       2.809343
                         10       1    1py               1.720806       2.809343
                         10       1    1pz               1.720806       2.809343

                         11       1    1px               0.770763       1.029417
                         11       1    1py               0.770763       1.029417
                         11       1    1pz               0.770763       1.029417

                         12       1    1px               0.287374       0.299916
                         12       1    1py               0.287374       0.299916
                         12       1    1pz               0.287374       0.299916

                         13       1    1px               0.101132       0.081293
                         13       1    1py               0.101132       0.081293
                         13       1    1pz               0.101132       0.081293

                         14       1    1dx2              0.781337       1.068751
                         14       1    1dxy              0.781337       1.851131
                         14       1    1dxz              0.781337       1.851131
                         14       1    1dy2              0.781337       1.068751
                         14       1    1dyz              0.781337       1.851131
                         14       1    1dz2              0.781337       1.068751

                         15       1    1dx2              0.264839       0.160927
                         15       1    1dxy              0.264839       0.278733
                         15       1    1dxz              0.264839       0.278733
                         15       1    1dy2              0.264839       0.160927
                         15       1    1dyz              0.264839       0.278733
                         15       1    1dz2              0.264839       0.160927

                         16       1    1fx3              0.583790       0.438563
                         16       1    1fx2y             0.583790       0.980657
                         16       1    1fx2z             0.583790       0.980657
                         16       1    1fxy2             0.583790       0.980657
                         16       1    1fxyz             0.583790       1.698547
                         16       1    1fxz2             0.583790       0.980657
                         16       1    1fy3              0.583790       0.438563
                         16       1    1fy2z             0.583790       0.980657
                         16       1    1fyz2             0.583790       0.980657
                         16       1    1fz3              0.583790       0.438563

     AE Potential information for                                            ALL

       Description:                                       All-electron potential
                                          Krack, Parrinello, PCCP 2, 2105 (2000)

       Gaussian exponent of the core charge distribution:               2.834467
       Electronic configuration (s p d ...):                           6  10   0


 MOLECULE KIND INFORMATION


 All atoms are their own molecule, skipping detailed information


 TOTAL NUMBERS AND MAXIMUM NUMBERS

  Total number of            - Atomic kinds:                                   2
                             - Atoms:                                          3
                             - Shell sets:                                    28
                             - Shells:                                        28
                             - Primitive Cartesian functions:                 42
                             - Cartesian basis functions:                     75
                             - Spherical basis functions:                     68

  Maximum angular momentum of the orbital basis functions:                     3


 MODULE QUICKSTEP: ATOMIC COORDINATES IN ANGSTROM

   Atom Kind Element         X             Y             Z       Z(eff)     Mass
      1    1 H     1     10.966557     10.000000     10.471859   1.0000   1.0079
      2    1 H     1      9.033443     10.000000     10.471859   1.0000   1.0079
      3    2 S    16     10.000000     10.000000      9.528141  16.0000  32.0650



 SCF PARAMETERS         Density guess:                                    ATOMIC
                        --------------------------------------------------------
                        max_scf:                                              20
                        max_scf_history:                                       0
                        max_diis:                                              4
                        --------------------------------------------------------
                        eps_scf:                                        1.00E-07
                        eps_scf_history:                                0.00E+00
                        eps_diis:                                       1.00E-01
                        eps_eigval:                                     1.00E-05
                        --------------------------------------------------------
                        level_shift [a.u.]:                             0.000000
                        --------------------------------------------------------
                        Outer loop SCF in use 
                        No variables optimised in outer loop
                        eps_scf                                         1.00E-07
                        max_scf                                               50
                        No outer loop optimization
                        step_size                                       5.00E-01

 PW_GRID| Information for grid number                                          1
 PW_GRID| Grid distributed over                                   128 processors
 PW_GRID| Real space group dimensions                                   128    1
 PW_GRID| the grid is blocked:                                                NO
 PW_GRID| Cutoff [a.u.]                                                   1200.0
 PW_GRID| spherical cutoff:                                                   NO
 PW_GRID|   Bounds   1           -300     299                Points:         600
 PW_GRID|   Bounds   2           -300     299                Points:         600
 PW_GRID|   Bounds   3           -300     299                Points:         600
 PW_GRID| Volume element (a.u.^3)  0.2499E-03     Volume (a.u.^3)     53986.6767
 PW_GRID| Grid span                                                    FULLSPACE
 PW_GRID|   Distribution                         Average         Max         Min
 PW_GRID|   G-Vectors                          1687500.0     1687800     1687200
 PW_GRID|   G-Rays                                2812.5        2813        2812
 PW_GRID|   Real Space Points                  1687500.0     1800000     1440000

 PW_GRID| Information for grid number                                          2
 PW_GRID| Number of the reference grid                                         1
 PW_GRID| Grid distributed over                                   128 processors
 PW_GRID| Real space group dimensions                                   128    1
 PW_GRID| the grid is blocked:                                                NO
 PW_GRID| Cutoff [a.u.]                                                    600.0
 PW_GRID| spherical cutoff:                                                   NO
 PW_GRID|   Bounds   1           -216     215                Points:         432
 PW_GRID|   Bounds   2           -216     215                Points:         432
 PW_GRID|   Bounds   3           -216     215                Points:         432
 PW_GRID| Volume element (a.u.^3)  0.6696E-03     Volume (a.u.^3)     53986.6767
 PW_GRID| Grid span                                                    FULLSPACE
 PW_GRID|   Distribution                         Average         Max         Min
 PW_GRID|   G-Vectors                           629856.0      630288      629424
 PW_GRID|   G-Rays                                1458.0        1459        1457
 PW_GRID|   Real Space Points                   629856.0      746496      559872

 PW_GRID| Information for grid number                                          3
 PW_GRID| Number of the reference grid                                         2
 PW_GRID| Grid distributed over                                   128 processors
 PW_GRID| Real space group dimensions                                   128    1
 PW_GRID| the grid is blocked:                                                NO
 PW_GRID| Cutoff [a.u.]                                                    200.0
 PW_GRID| spherical cutoff:                                                   NO
 PW_GRID|   Bounds   1           -121     121                Points:         243
 PW_GRID|   Bounds   2           -121     121                Points:         243
 PW_GRID|   Bounds   3           -121     121                Points:         243
 PW_GRID| Volume element (a.u.^3)  0.3762E-02     Volume (a.u.^3)     53986.6767
 PW_GRID| Grid span                                                    FULLSPACE
 PW_GRID|   Distribution                         Average         Max         Min
 PW_GRID|   G-Vectors                           112100.8      112266      111780
 PW_GRID|   G-Rays                                 461.3         462         460
 PW_GRID|   Real Space Points                   112100.8      118098       59049

 PW_GRID| Information for grid number                                          4
 PW_GRID| Number of the reference grid                                         2
 PW_GRID| Grid distributed over                                   128 processors
 PW_GRID| Real space group dimensions                                   128    1
 PW_GRID| the grid is blocked:                                                NO
 PW_GRID| Cutoff [a.u.]                                                     66.7
 PW_GRID| spherical cutoff:                                                   NO
 PW_GRID|   Bounds   1            -72      71                Points:         144
 PW_GRID|   Bounds   2            -72      71                Points:         144
 PW_GRID|   Bounds   3            -72      71                Points:         144
 PW_GRID| Volume element (a.u.^3)  0.1808E-01     Volume (a.u.^3)     53986.6767
 PW_GRID| Grid span                                                    FULLSPACE
 PW_GRID|   Distribution                         Average         Max         Min
 PW_GRID|   G-Vectors                            23328.0       23472       23184
 PW_GRID|   G-Rays                                 162.0         163         161
 PW_GRID|   Real Space Points                    23328.0       41472       20736

 PW_GRID| Information for grid number                                          5
 PW_GRID| Number of the reference grid                                         2
 PW_GRID| Grid distributed over                                   128 processors
 PW_GRID| Real space group dimensions                                     8   16
 PW_GRID| the grid is blocked:                                                NO
 PW_GRID| Cutoff [a.u.]                                                     22.2
 PW_GRID| spherical cutoff:                                                   NO
 PW_GRID|   Bounds   1            -40      40                Points:          81
 PW_GRID|   Bounds   2            -40      40                Points:          81
 PW_GRID|   Bounds   3            -40      40                Points:          81
 PW_GRID| Volume element (a.u.^3)  0.1016         Volume (a.u.^3)     53986.6767
 PW_GRID| Grid span                                                    FULLSPACE
 PW_GRID|   Distribution                         Average         Max         Min
 PW_GRID|   G-Vectors                             4151.9        4293        4050
 PW_GRID|   G-Rays                                  51.3          53          50
 PW_GRID|   Real Space Points                     4151.9        5346        4050

 PW_GRID| Information for grid number                                          6
 PW_GRID| Number of the reference grid                                         2
 PW_GRID| Grid distributed over                                   128 processors
 PW_GRID| Real space group dimensions                                     8   16
 PW_GRID| the grid is blocked:                                                NO
 PW_GRID| Cutoff [a.u.]                                                      7.4
 PW_GRID| spherical cutoff:                                                   NO
 PW_GRID|   Bounds   1            -24      23                Points:          48
 PW_GRID|   Bounds   2            -24      23                Points:          48
 PW_GRID|   Bounds   3            -24      23                Points:          48
 PW_GRID| Volume element (a.u.^3)  0.4882         Volume (a.u.^3)     53986.6767
 PW_GRID| Grid span                                                    FULLSPACE
 PW_GRID|   Distribution                         Average         Max         Min
 PW_GRID|   G-Vectors                              864.0         912         816
 PW_GRID|   G-Rays                                  18.0          19          17
 PW_GRID|   Real Space Points                      864.0         864         864

 POISSON| Solver                                          Martyna-Tuckerman (MT)
 POISSON| MT| Alpha                                                        7.000
 POISSON| MT| Relative cutoff                                                2.0
 POISSON| Periodicity                                                       NONE

 RS_GRID| Information for grid number                                          2
 RS_GRID|   Bounds   1           -216     215                Points:         432
 RS_GRID|   Bounds   2           -216     215                Points:         432
 RS_GRID|   Bounds   3           -216     215                Points:         432
 RS_GRID| Real space distribution over                                  4 groups
 RS_GRID| Real space distribution along direction                              1
 RS_GRID| Border size                                                         44
 RS_GRID| Real space distribution over                                  4 groups
 RS_GRID| Real space distribution along direction                              2
 RS_GRID| Border size                                                         44
 RS_GRID| Real space distribution over                                  8 groups
 RS_GRID| Real space distribution along direction                              3
 RS_GRID| Border size                                                         44
 RS_GRID|   Distribution                         Average         Max         Min
 RS_GRID|   Planes                                 196.0         196         196
 RS_GRID|   Distribution                         Average         Max         Min
 RS_GRID|   Planes                                 196.0         196         196
 RS_GRID|   Distribution                         Average         Max         Min
 RS_GRID|   Planes                                 142.0         142         142

 RS_GRID| Information for grid number                                          3
 RS_GRID|   Bounds   1           -121     121                Points:         243
 RS_GRID|   Bounds   2           -121     121                Points:         243
 RS_GRID|   Bounds   3           -121     121                Points:         243
 RS_GRID| Real space distribution over                                  4 groups
 RS_GRID| Real space distribution along direction                              1
 RS_GRID| Border size                                                         33
 RS_GRID| Real space distribution over                                  4 groups
 RS_GRID| Real space distribution along direction                              2
 RS_GRID| Border size                                                         33
 RS_GRID| Real space distribution over                                  8 groups
 RS_GRID| Real space distribution along direction                              3
 RS_GRID| Border size                                                         33
 RS_GRID|   Distribution                         Average         Max         Min
 RS_GRID|   Planes                                 126.8         127         126
 RS_GRID|   Distribution                         Average         Max         Min
 RS_GRID|   Planes                                 126.8         127         126
 RS_GRID|   Distribution                         Average         Max         Min
 RS_GRID|   Planes                                  96.4          97          96

 RS_GRID| Information for grid number                                          4
 RS_GRID|   Bounds   1            -72      71                Points:         144
 RS_GRID|   Bounds   2            -72      71                Points:         144
 RS_GRID|   Bounds   3            -72      71                Points:         144
 RS_GRID| Real space fully replicated
 RS_GRID| Group size                                                           1

 RS_GRID| Information for grid number                                          5
 RS_GRID|   Bounds   1            -40      40                Points:          81
 RS_GRID|   Bounds   2            -40      40                Points:          81
 RS_GRID|   Bounds   3            -40      40                Points:          81
 RS_GRID| Real space fully replicated
 RS_GRID| Group size                                                           1

 RS_GRID| Information for grid number                                          6
 RS_GRID|   Bounds   1            -24      23                Points:          48
 RS_GRID|   Bounds   2            -24      23                Points:          48
 RS_GRID|   Bounds   3            -24      23                Points:          48
 RS_GRID| Real space fully replicated
 RS_GRID| Group size                                                           1

  HFX_INFO| Replica ID:                                                        1
  HFX_INFO| FRACTION:                                               0.2500000000
  HFX_INFO| Interaction Potential:                                       COULOMB
  HFX_INFO| EPS_SCHWARZ:                                                 1.0E-10
  HFX_INFO| EPS_SCHWARZ_FORCES                                           1.0E-06
  HFX_INFO| EPS_STORAGE_SCALING:                                         1.0E+00
  HFX_INFO| NBINS:                                                            64
  HFX_INFO| BLOCK_SIZE:                                                        1
  HFX_INFO| Number of periodic shells considered:                           NONE
  HFX_INFO| Number of periodic cells considered:                            NONE


 Number of electrons:                                                         18
 Number of occupied orbitals:                                                  9
 Number of molecular orbitals:                                                 9

 Number of orbital functions:                                                 68
 Number of independent orbital functions:                                     68

 Extrapolation method: initial_guess

 Atomic guess: The first density matrix is obtained in terms of atomic orbitals
               and electronic configurations assigned to each atomic kind

 Guess for atomic kind: H

 Electronic structure
    Total number of core electrons                                          0.00
    Total number of valence electrons                                       1.00
    Total number of electrons                                               1.00
    Multiplicity                                                   not specified
    S      1.00
 

 *******************************************************************************
                  Iteration          Convergence                     Energy [au]
 *******************************************************************************
                          1        0.901344E-02                  -0.444560434385
                          2        0.112810E-02                  -0.444629377369
                          3        0.824978E-04                  -0.444631123607
                          4        0.531592E-07                  -0.444631130415

 Energy components [Hartree]           Total Energy ::           -0.444631130415
                                        Band Energy ::           -0.229051818617
                                     Kinetic Energy ::            0.431531450645
                                   Potential Energy ::           -0.876162581060
                                      Virial (-V/T) ::            2.030356257348
                                        Core Energy ::           -0.496316890851
                                          XC Energy ::           -0.235228547242
                                     Coulomb Energy ::            0.286914307678

 Orbital energies  State     L     Occupation   Energy[a.u.]          Energy[eV]

                       1     0          1.000      -0.229052           -6.232817
 

 Total Electron Density at R=0:                                         0.248567

 Guess for atomic kind: S

 Electronic structure
    Total number of core electrons                                          0.00
    Total number of valence electrons                                      16.00
    Total number of electrons                                              16.00
    Multiplicity                                                   not specified
    S      2.00  2.00  2.00
    P      6.00  4.00
 

 *******************************************************************************
                  Iteration          Convergence                     Energy [au]
 *******************************************************************************
                          1        0.735833                    -396.664370503190
                          2        0.395366                    -396.684447328044
                          3        0.568508E-01                -396.696715605034
                          4        0.151523E-01                -396.697443952428
                          5        0.221849E-04                -396.697506988348
                          6        0.476659E-05                -396.697506988693
                          7        0.354178E-07                -396.697506988703

 Energy components [Hartree]           Total Energy ::         -396.697506988703
                                        Band Energy ::         -227.783603260780
                                     Kinetic Energy ::          395.605362430639
                                   Potential Energy ::         -792.302869419341
                                      Virial (-V/T) ::            2.002760691997
                                        Core Energy ::         -549.239194536709
                                          XC Energy ::          -24.137388753704
                                     Coulomb Energy ::          176.679076301710

 Orbital energies  State     L     Occupation   Energy[a.u.]          Energy[eV]

                       1     0          2.000     -87.798243        -2389.111702
                       2     0          2.000      -7.696671         -209.437072
                       3     0          2.000      -0.628463          -17.101354
 
                       1     1          6.000      -5.749750         -156.458648
                       2     1          4.000      -0.259587           -7.063730
 

 Total Electron Density at R=0:                                      2656.675099
 Re-scaling the density matrix to get the right number of electrons
                  # Electrons              Trace(P)               Scaling factor
                           18                18.000                        1.000


 SCF WAVEFUNCTION OPTIMIZATION

  ----------------------------------- OT ---------------------------------------
  Minimizer      : DIIS                : direct inversion
                                         in the iterative subspace
                                         using   7 DIIS vectors
                                         safer DIIS on
  Preconditioner : FULL_ALL            : diagonalization, state selective
  Precond_solver : DEFAULT
  stepsize       :    0.15000000                  energy_gap     :    0.08000000
  eps_taylor     :   0.10000E-15                  max_taylor     :             4
  ----------------------------------- OT ---------------------------------------

  Step     Update method      Time    Convergence         Total energy    Change
  ------------------------------------------------------------------------------

  HFX_MEM_INFO| Est. max. program size before HFX [MiB]:                     959
  HFX_MEM_INFO| Number of cart. primitive ERI's calculated:             36139670
  HFX_MEM_INFO| Number of sph. ERI's calculated:                         7122656
  HFX_MEM_INFO| Number of sph. ERI's stored in-core:                     7122656
  HFX_MEM_INFO| Number of sph. ERI's stored on disk:                           0
  HFX_MEM_INFO| Number of sph. ERI's calculated on the fly:                    0
  HFX_MEM_INFO| Total memory consumption ERI's RAM [MiB]:                     22
  HFX_MEM_INFO| Whereof max-vals [MiB]:                                        2
  HFX_MEM_INFO| Total compression factor ERI's RAM:                         2.49
  HFX_MEM_INFO| Total memory consumption ERI's disk [MiB]:                     0
  HFX_MEM_INFO| Total compression factor ERI's disk:                        0.00
  HFX_MEM_INFO| Size of density/Fock matrix [MiB]:                             0
  HFX_MEM_INFO| Size of buffers [MiB]:                                         0
  HFX_MEM_INFO| Est. max. program size after HFX  [MiB]:                     958

     1 OT DIIS     0.15E+00  101.0     0.34477915      -391.7879644035 -3.92E+02
     2 OT DIIS     0.15E+00   54.5     0.08364679      -398.2615060581 -6.47E+00
     3 OT DIIS     0.15E+00   53.0     0.03792307      -398.7631487674 -5.02E-01
     4 OT DIIS     0.15E+00   50.6     0.02117265      -398.9098810379 -1.47E-01
     5 OT DIIS     0.15E+00   52.3     0.01896718      -398.9634008820 -5.35E-02
     6 OT DIIS     0.15E+00   55.8     0.01303838      -399.1301432539 -1.67E-01
     7 OT DIIS     0.15E+00   54.6     0.01156268      -399.1607664311 -3.06E-02
     8 OT DIIS     0.15E+00   52.8     0.00896071      -399.1959422884 -3.52E-02
     9 OT DIIS     0.15E+00   53.1     0.01363799      -399.2012786604 -5.34E-03
    10 OT DIIS     0.15E+00   52.2     0.00866575      -399.2352099699 -3.39E-02
    11 OT DIIS     0.15E+00   53.6     0.00346817      -399.2510852626 -1.59E-02
    12 OT DIIS     0.15E+00   50.2     0.00441530      -399.2535279510 -2.44E-03
    13 OT DIIS     0.15E+00   52.6     0.00196533      -399.2571688123 -3.64E-03
    14 OT DIIS     0.15E+00   53.8     0.00260251      -399.2582221505 -1.05E-03
    15 OT DIIS     0.15E+00   54.6     0.00187173      -399.2593538173 -1.13E-03
    16 OT DIIS     0.15E+00   52.8     0.00086086      -399.2601486517 -7.95E-04
    17 OT DIIS     0.15E+00   57.1     0.00088566      -399.2605199903 -3.71E-04
    18 OT DIIS     0.15E+00   50.8     0.00047541      -399.2607146681 -1.95E-04
    19 OT DIIS     0.15E+00   53.7     0.00037866      -399.2607846651 -7.00E-05
    20 OT DIIS     0.15E+00   50.7     0.00021549      -399.2608577677 -7.31E-05

  Leaving inner SCF loop after reaching    20 steps.


  Electronic density on regular grids:        -11.4239938513        6.5760061487
  Core density on regular grids:               18.0000000000       -0.0000000000
  Hard and soft densities (Lebedev):          -20.3430940659      -13.7670875374
  Total Rho_soft + Rho1_hard - Rho1_soft      -18.0000003797
  Total charge density (r-space):              -0.0000003797
  Total Rho_soft + Rho0_soft (g-space):        -0.0000002202

  Overlap energy of the core charge distribution:               0.00000051073774
  Self energy of the core charge distribution:               -174.76444004657884
  Core Hamiltonian energy:                                   -227.41853854540744
  Hartree energy:                                              46.47479750281995
  Exchange-correlation energy:                                 -4.85581452272686
  Hartree-Fock Exchange energy:                                -6.42255008231098

  GAPW| Exc from hard and soft atomic rho1:                   -14.97618912815316
  GAPW| local Eh = 1 center integrals:                        -17.29812345604083

  Total energy:                                              -399.26085776766041

  outer SCF iter =    1 RMS gradient =   0.22E-03 energy =       -399.2608577677

  ----------------------------------- OT ---------------------------------------
  Minimizer      : DIIS                : direct inversion
                                         in the iterative subspace
                                         using   7 DIIS vectors
                                         safer DIIS on
  Preconditioner : FULL_ALL            : diagonalization, state selective
  Precond_solver : DEFAULT
  stepsize       :    0.15000000                  energy_gap     :    0.08000000
  eps_taylor     :   0.10000E-15                  max_taylor     :             4
  ----------------------------------- OT ---------------------------------------

  Step     Update method      Time    Convergence         Total energy    Change
  ------------------------------------------------------------------------------
     1 OT DIIS     0.15E+00  143.0     0.00045525      -399.2608767779 -1.90E-05
     2 OT DIIS     0.15E+00   44.6     0.00021285      -399.2608905503 -1.38E-05
     3 OT DIIS     0.15E+00   43.1     0.00003106      -399.2608945285 -3.98E-06
     4 OT DIIS     0.15E+00   43.6     0.00000723      -399.2608946077 -7.92E-08
     5 OT DIIS     0.15E+00   43.9     0.00000182      -399.2608946119 -4.21E-09
     6 OT DIIS     0.15E+00   43.5     0.00000044      -399.2608946122 -3.10E-10
     7 OT DIIS     0.15E+00   43.7     0.00000006      -399.2608946121  7.88E-11

  *** SCF run converged in     7 steps ***


  Electronic density on regular grids:        -11.4240579905        6.5759420095
  Core density on regular grids:               18.0000000000       -0.0000000000
  Hard and soft densities (Lebedev):          -20.3419376003      -13.7659952109
  Total Rho_soft + Rho1_hard - Rho1_soft      -18.0000003798
  Total charge density (r-space):              -0.0000003798
  Total Rho_soft + Rho0_soft (g-space):        -0.0000002203

  Overlap energy of the core charge distribution:               0.00000051073774
  Self energy of the core charge distribution:               -174.76444004657884
  Core Hamiltonian energy:                                   -227.41873421587255
  Hartree energy:                                              46.47516599018422
  Exchange-correlation energy:                                 -4.85578463669335
  Hartree-Fock Exchange energy:                                -6.42250958148183

  GAPW| Exc from hard and soft atomic rho1:                   -14.97609935647321
  GAPW| local Eh = 1 center integrals:                        -17.29849327592162

  Total energy:                                              -399.26089461209938

  outer SCF iter =    2 RMS gradient =   0.64E-07 energy =       -399.2608946121
  outer SCF loop converged in   2 iterations or   27 steps


 !-----------------------------------------------------------------------------!
                     Mulliken Population Analysis

 #  Atom  Element  Kind  Atomic population                           Net charge
       1     H        1          0.888059                              0.111941
       2     H        1          0.888059                              0.111941
       3     S        2         16.223882                             -0.223882
 # Total charge                             18.000000                 -0.000000

 !-----------------------------------------------------------------------------!

 !-----------------------------------------------------------------------------!
                           Hirshfeld Charges

  #Atom  Element  Kind  Ref Charge     Population                    Net charge
      1       H      1       1.000          0.377                         0.623
      2       H      1       1.000          0.377                         0.623
      3       S      2      16.000         17.246                        -1.246

  Total Charge                                                            0.000
 !-----------------------------------------------------------------------------!

 *******************************************************************************
 **                                                                           **
 **         ######## #######   #######   ######## #######  ########           **
 **            ##    ##     ## ##     ## ##       ##   ##     ##              **
 **            ##    ##     ## ##     ## ######   #######     ##              **
 **            ##    ##     ## ##     ## ##       ##          ##              **
 **            ##    #######   #######   ##       ##          ##              **
 **                                                                           **
 *******************************************************************************
 KERNEL|                                                                    FULL
 FUNCTIONAL| PBE:
 FUNCTIONAL| J.P.Perdew, K.Burke, M.Ernzerhof, Phys. Rev. Letter, vol. 77, n 18,
 FUNCTIONAL|  pp. 3865-3868, (1996)sx=0.750sc=1.000{spin unpolarized}           
 KERNEL|                                                          Exact Exchange
 KERNEL| Spin symmetry of excitations                                    Triplet
 TDDFPT| Number of states calculated                                          10
 TDDFPT| Number of Davidson iterations                                        20
 TDDFPT| Davidson iteration convergence                                0.100E-07
 TDDFPT| Max. number of Krylov space vectors                                  60
 TDDFPT| Molecular Orbitals:        Spin       AOs       Occ      Virt     Total
 TDDFPT|                               1        68         9        59        68

 *******************************************************************************
 **                                                                           **
 **                            ####### ####### #######                        **
 **                        #   ##      ##   ## ##                             **
 **                       ###  ######  ##   ## ##                             **
 **                        #       ##  ##   ## ##                             **
 **                            ######  ####### #######                        **
 **                 Based on the xas module from Augustin Bussy               **
 *******************************************************************************
 
 -------------------------------------------------------------------------------
 -                      TDDFPT TRIPLET ENERGIES                                 -
 -------------------------------------------------------------------------------
 
 -------------------------------------------------------------------------------
 -                            TDDFPT Initial Guess                             -
 -------------------------------------------------------------------------------
          State         Occupied      ->      Virtual          Excitation
          number         orbital              orbital          energy (eV)
 -------------------------------------------------------------------------------
             1                9                   10              8.07249
             2                9                   11              8.37457
             3                8                   10             10.94709
             4                8                   11             11.24918
             5                9                   12             12.83772
             6                7                   10             12.92064
             7                7                   11             13.22272
             8                9                   13             13.62048
             9                9                   14             14.52548
            10                9                   15             14.74760

      Number of active states:                                        531
 -------------------------------------------------------------------------------
 
 -------------------------------------------------------------------------------
 -                      TDDFPT WAVEFUNCTION OPTIMIZATION                       -
 -------------------------------------------------------------------------------

          Step            Time         Convergence           Conv. states
 -------------------------------------------------------------------------------

    State    Exc. energy (eV)      Convergence (eV)
        1       5.5933768            -2.4791E+00
        2       6.1749237            -2.1996E+00
        3       7.9219949            -3.0251E+00
        4       8.8970207            -2.3522E+00
        5      10.0609537            -2.7768E+00
        6      10.8153003            -2.1053E+00
        7      10.9427687            -2.2800E+00
        8      11.0587919            -2.5617E+00
        9      12.1589465            -2.3665E+00
       10      12.1957799            -2.5518E+00
 
             1           484.4          1.1117E-01                      0

    State    Exc. energy (eV)      Convergence (eV)
        1       5.4895557            -1.0382E-01
        2       6.0984292            -7.6494E-02
        3       7.7057794            -2.1622E-01
        4       8.7077587            -1.8926E-01
        5       9.8947897            -1.6616E-01
        6      10.6117962            -2.0350E-01
        7      10.9037733            -3.8995E-02
        8      10.9111651            -1.4763E-01
        9      12.0661260            -9.2820E-02
       10      12.1308867            -6.4893E-02
 
             2           477.7          7.9458E-03                      0

    State    Exc. energy (eV)      Convergence (eV)
        1       5.4892062            -3.4952E-04
        2       6.0977417            -6.8753E-04
        3       7.7041144            -1.6650E-03
        4       8.7056347            -2.1240E-03
        5       9.8933279            -1.4618E-03
        6      10.6061043            -5.6919E-03
        7      10.8987374            -5.0359E-03
        8      10.9033577            -7.8073E-03
        9      12.0600691            -6.0569E-03
       10      12.1188234            -1.2063E-02
 
             3           482.5          4.4332E-04                      0

    State    Exc. energy (eV)      Convergence (eV)
        1       5.4892052            -9.7312E-07
        2       6.0977340            -7.7085E-06
        3       7.7040636            -5.0813E-05
        4       8.7055950            -3.9671E-05
        5       9.8932846            -4.3286E-05
        6      10.6055593            -5.4501E-04
        7      10.8979394            -7.9797E-04
        8      10.9033548            -2.9046E-06
        9      12.0599050            -1.6414E-04
       10      12.1125327            -6.2907E-03
 
             4           477.1          2.3118E-04                      0

    State    Exc. energy (eV)      Convergence (eV)
        1       5.4892052            -1.8637E-09
        2       6.0977340            -4.6643E-09
        3       7.7040632            -3.2874E-07
        4       8.7055936            -1.3898E-06
        5       9.8932844            -2.2944E-07
        6      10.6055461            -1.3212E-05
        7      10.8979375            -1.9089E-06
        8      10.9033548            -1.8164E-08
        9      12.0598780            -2.6943E-05
       10      12.1124972            -3.5503E-05
 
             5           487.9          1.3047E-06                      4

    State    Exc. energy (eV)      Convergence (eV)
        1       5.4892052            -4.1230E-12
        2       6.0977340            -6.8979E-12
        3       7.7040632            -3.6042E-09
        4       8.7055936            -1.9091E-08
        5       9.8932844            -1.0984E-09
        6      10.6055458            -2.3971E-07
        7      10.8979375            -1.2369E-08
        8      10.9033548            -1.2608E-10
        9      12.0598736            -4.4539E-06
       10      12.1124969            -2.8306E-07
 
             6           429.0          1.6368E-07                      8
 ------------------------- Restart Davidson iterations -------------------------

    State    Exc. energy (eV)      Convergence (eV)
        1       5.4892052             7.5527E-16
        2       6.0977340            -4.0029E-14
        3       7.7040632            -4.5316E-15
        4       8.7055936             1.5105E-14
        5       9.8932844             0.0000E+00
        6      10.6055458            -1.3595E-14
        7      10.8979375             2.5679E-14
        8      10.9033548            -3.0211E-15
        9      12.0598736             1.6616E-14
       10      12.1124969             1.0574E-14
 
             7           414.4          1.4710E-15                     10
 
 -------------------------------------------------------------------------------
 -  TDDFPT run converged in 7 iteration(s) 
 -------------------------------------------------------------------------------

 R-TDDFPT states of multiplicity 3
 Transition dipoles calculated using length formulation

         State    Excitation        Transition dipole (a.u.)        Oscillator
         number   energy (eV)       x           y           z     strength (a.u.)
         ------------------------------------------------------------------------
 TDDFPT|      1       5.48921   0.0000E+00  0.0000E+00  0.0000E+00   0.00000E+00
 TDDFPT|      2       6.09773   0.0000E+00  0.0000E+00  0.0000E+00   0.00000E+00
 TDDFPT|      3       7.70406   0.0000E+00  0.0000E+00  0.0000E+00   0.00000E+00
 TDDFPT|      4       8.70559   0.0000E+00  0.0000E+00  0.0000E+00   0.00000E+00
 TDDFPT|      5       9.89328   0.0000E+00  0.0000E+00  0.0000E+00   0.00000E+00
 TDDFPT|      6      10.60555   0.0000E+00  0.0000E+00  0.0000E+00   0.00000E+00
 TDDFPT|      7      10.89794   0.0000E+00  0.0000E+00  0.0000E+00   0.00000E+00
 TDDFPT|      8      10.90335   0.0000E+00  0.0000E+00  0.0000E+00   0.00000E+00
 TDDFPT|      9      12.05987   0.0000E+00  0.0000E+00  0.0000E+00   0.00000E+00
 TDDFPT|     10      12.11250   0.0000E+00  0.0000E+00  0.0000E+00   0.00000E+00

 TDDFPT : CheckSum  =  0.112828E+01
 
 -------------------------------------------------------------------------------
 -                            Excitation analysis                              -
 -------------------------------------------------------------------------------
        State             Occupied              Virtual             Excitation
        number             orbital              orbital             amplitude
 -------------------------------------------------------------------------------
             1   5.48921 eV
                                 9                   10               0.995515
                                 9                   19              -0.071912
             2   6.09773 eV
                                 9                   11               0.991574
                                 9                   13              -0.076443
                                 9                   14              -0.068108
                                 9                   16              -0.062552
             3   7.70406 eV
                                 8                   10              -0.980003
                                 7                   11              -0.135154
                                 8                   19               0.099085
                                 9                   17               0.060466
             4   8.70559 eV
                                 8                   11              -0.912404
                                 7                   10              -0.379630
                                 8                   16               0.084189
                                 8                   14               0.066984
                                 8                   13               0.062625
             5   9.89328 eV
                                 7                   10              -0.910974
                                 8                   11               0.389404
                                 7                   19               0.091470
                                 9                   15               0.052277
             6  10.60555 eV
                                 7                   11               0.975158
                                 8                   10              -0.134307
                                 7                   14              -0.104793
                                 9                   17               0.062654
                                 8                   12              -0.054040
                                 7                   13              -0.053913
                                 6                   10               0.053599
             7  10.89794 eV
                                 9                   13               0.928900
                                 9                   14               0.293123
                                 9                   16               0.163181
                                 9                   20              -0.109163
                                 9                   11               0.101968
             8  10.90335 eV
                                 9                   12               0.997731
             9  12.05987 eV
                                 9                   15              -0.989514
                                 8                   13               0.078887
                                 6                   11               0.060011
                                 8                   14              -0.054948
            10  12.11250 eV
                                 9                   14               0.925820
                                 9                   16              -0.267384
                                 9                   13              -0.248932
                                 8                   15               0.060997
 -------------------------------------------------------------------------------
 
 -------------------------------------------------------------------------------
 -                            Natural Orbital analysis                         -
 -------------------------------------------------------------------------------
   STATE NR.      1             5.48921 eV
     Particle-Hole state: 1   Spin:1     Eigenvalue: 0.99698   Sum Eigv: 0.99698
   STATE NR.      2             6.09773 eV
     Particle-Hole state: 1   Spin:1     Eigenvalue: 0.99890   Sum Eigv: 0.99890
   STATE NR.      3             7.70406 eV
     Particle-Hole state: 1   Spin:1     Eigenvalue: 0.97286   Sum Eigv: 0.97286
     Particle-Hole state: 2   Spin:1     Eigenvalue: 0.02214   Sum Eigv: 0.99499
   STATE NR.      4             8.70559 eV
     Particle-Hole state: 1   Spin:1     Eigenvalue: 0.85152   Sum Eigv: 0.85152
     Particle-Hole state: 2   Spin:1     Eigenvalue: 0.14689   Sum Eigv: 0.99841
   STATE NR.      5             9.89328 eV
     Particle-Hole state: 1   Spin:1     Eigenvalue: 0.83930   Sum Eigv: 0.83930
     Particle-Hole state: 2   Spin:1     Eigenvalue: 0.15477   Sum Eigv: 0.99407
   STATE NR.      6            10.60555 eV
     Particle-Hole state: 1   Spin:1     Eigenvalue: 0.96884   Sum Eigv: 0.96884
     Particle-Hole state: 2   Spin:1     Eigenvalue: 0.02320   Sum Eigv: 0.99204
   STATE NR.      7            10.89794 eV
     Particle-Hole state: 1   Spin:1     Eigenvalue: 0.99801   Sum Eigv: 0.99801
   STATE NR.      8            10.90335 eV
     Particle-Hole state: 1   Spin:1     Eigenvalue: 0.99879   Sum Eigv: 0.99879
   STATE NR.      9            12.05987 eV
     Particle-Hole state: 1   Spin:1     Eigenvalue: 0.98038   Sum Eigv: 0.98038
   STATE NR.     10            12.11250 eV
     Particle-Hole state: 1   Spin:1     Eigenvalue: 0.99267   Sum Eigv: 0.99267
 -------------------------------------------------------------------------------
 
                       triplet excitations finished                             
                                                                                
 -------------------------------------------------------------------------------
 -                      TDDFPT SINGLET ENERGIES                                -
 -------------------------------------------------------------------------------
 
 -------------------------------------------------------------------------------
 -                            TDDFPT Initial Guess                             -
 -------------------------------------------------------------------------------
          State         Occupied      ->      Virtual          Excitation
          number         orbital              orbital          energy (eV)
 -------------------------------------------------------------------------------
             1                9                   10              8.07249
             2                9                   11              8.37457
             3                8                   10             10.94709
             4                8                   11             11.24918
             5                9                   12             12.83772
             6                7                   10             12.92064
             7                7                   11             13.22272
             8                9                   13             13.62048
             9                9                   14             14.52548
            10                9                   15             14.74760

      Number of active states:                                        531
 -------------------------------------------------------------------------------
 
 -------------------------------------------------------------------------------
 -                      TDDFPT WAVEFUNCTION OPTIMIZATION                       -
 -------------------------------------------------------------------------------

          Step            Time         Convergence           Conv. states
 -------------------------------------------------------------------------------

    State    Exc. energy (eV)      Convergence (eV)
        1       6.1296678            -1.9428E+00
        2       6.9015500            -1.4730E+00
[...]
 flops    40 x    40 x     9              8870400       0.0%    100.0%      0.0%
 flops     9 x     9 x    14              9570960       0.0%    100.0%      0.0%
 flops     9 x     9 x    40             13672800       0.0%    100.0%      0.0%
 flops    14 x     9 x    14             16038288       0.0%    100.0%      0.0%
 flops    40 x     9 x    14             21631680       0.0%    100.0%      0.0%
 flops    14 x     9 x    40             22276800       0.0%    100.0%      0.0%
 flops    40 x     9 x    40             32716800       0.0%    100.0%      0.0%
 flops inhomo. stacks                           0       0.0%      0.0%      0.0%
 flops total                       142.477840E+06       0.0%    100.0%      0.0%
 flops max/rank                     78.524460E+06       0.0%    100.0%      0.0%
 matmuls inhomo. stacks                         0       0.0%      0.0%      0.0%
 matmuls total                              18966       0.0%    100.0%      0.0%
 number of processed stacks                 17766       0.0%    100.0%      0.0%
 average stack size                                     0.0       1.1       0.0
 marketing flops                   152.780464E+06
 -------------------------------------------------------------------------------
 # multiplications                           1813
 max memory usage/rank               1.553625E+09
 # max total images/rank                        2
 # max 3D layers                                1
 # MPI messages exchanged                 6729856
 MPI messages size (bytes):
  total size                       687.650688E+06
  min size                           0.000000E+00
  max size                          17.280000E+03
  average size                     102.179108E+00
 MPI breakdown and total messages size (bytes):
             size <=      128             6568632                        0
       128 < size <=     8192              145808                422306008
      8192 < size <=    32768               15416                265344640
     32768 < size <=   131072                   0                        0
    131072 < size <=  4194304                   0                        0
   4194304 < size <= 16777216                   0                        0
  16777216 < size                               0                        0
 -------------------------------------------------------------------------------

 *** WARNING in dbcsr_mm.F:291 :: Using a non-square number of MPI ranks ***
 *** might lead to poor performance. Used ranks: 128 Suggested: 121 256  ***

 -------------------------------------------------------------------------------
 -                                                                             -
 -                      DBCSR MESSAGE PASSING PERFORMANCE                      -
 -                                                                             -
 -------------------------------------------------------------------------------
 ROUTINE             CALLS      AVE VOLUME [Bytes]
 MP_Bcast               24                     12.
 MP_Allreduce         7827                      8.
 MP_Alltoall         28776                  36928.
 MP_ISend           113172                    529.
 MP_IRecv           112376                    341.
 -------------------------------------------------------------------------------

 -------------------------------------------------------------------------------
 -                                                                             -
 -                                DBM STATISTICS                               -
 -                                                                             -
 -------------------------------------------------------------------------------
    M  x    N  x    K                                          COUNT     PERCENT
 -------------------------------------------------------------------------------

 -------------------------------------------------------------------------------
 -                                                                             -
 -                                GRID STATISTICS                              -
 -                                                                             -
 -------------------------------------------------------------------------------
 LP    KERNEL             BACKEND                              COUNT     PERCENT
 2     collocate general  CPU                                  38016      16.50%
 2     integrate general  CPU                                  37248      16.17%
 1     collocate ortho    CPU                                  24480      10.63%
 1     integrate ortho    CPU                                  24048      10.44%
 2     collocate ortho    CPU                                  20570       8.93%
 2     integrate ortho    CPU                                  20207       8.77%
 0     collocate ortho    CPU                                  16150       7.01%
 0     integrate ortho    CPU                                  15865       6.89%
 3     collocate ortho    CPU                                  11220       4.87%
 3     integrate ortho    CPU                                  11022       4.78%
 4     collocate ortho    CPU                                   4250       1.84%
 4     integrate ortho    CPU                                   4175       1.81%
 5     collocate ortho    CPU                                   1020       0.44%
 5     integrate ortho    CPU                                   1002       0.43%
 0     collocate general  CPU                                    384       0.17%
 0     integrate general  CPU                                    384       0.17%
 6     collocate ortho    CPU                                    170       0.07%
 6     integrate ortho    CPU                                    167       0.07%
 -------------------------------------------------------------------------------

 MEMORY| Estimated peak process memory [MiB]                                1494

 -------------------------------------------------------------------------------
 ----                             MULTIGRID INFO                            ----
 -------------------------------------------------------------------------------
 count for grid        1:         552525          cutoff [a.u.]          600.00
 count for grid        2:          83984          cutoff [a.u.]          200.00
 count for grid        3:          96830          cutoff [a.u.]           66.67
 count for grid        4:          27568          cutoff [a.u.]           22.22
 count for grid        5:           1920          cutoff [a.u.]            7.41
 total gridlevel count  :         762827

 -------------------------------------------------------------------------------
 -                                                                             -
 -                         MESSAGE PASSING PERFORMANCE                         -
 -                                                                             -
 -------------------------------------------------------------------------------

 ROUTINE             CALLS      AVE VOLUME [Bytes]
 MP_Group                6
 MP_Bcast             1501                 242751.
 MP_Allreduce         8253                  16734.
 MP_Sync              1624
 MP_Alltoall          4472               18502961.
 MP_SendRecv         64770                 127152.
 MP_ISendRecv       141859                  64068.
 MP_Wait            182132
 MP_comm_split          81
 MP_ISend            33810                 812305.
 MP_IRecv            36448                 753460.
 -------------------------------------------------------------------------------


 -------------------------------------------------------------------------------
 -                                                                             -
 -                           R E F E R E N C E S                               -
 -                                                                             -
 -------------------------------------------------------------------------------
 
 CP2K version 2024.1 (Development Version), the CP2K developers group (2024).
 CP2K is freely available from https://www.cp2k.org/ .

 Kuehne,Thomas D.; Iannuzzi,Marcella; Del Ben,Mauro;
 Rybkin,Vladimir V.; Seewald,Patrick; Stein,Frederick; Laino,Teodoro;
 Khaliullin,Rustam Z.; Schuett,Ole; Schiffmann,Florian; Golze,Dorothea;
 Wilhelm,Jan; Chulkov,Sergey; Bani-Hashemian,Mohammad Hossein;
 Weber,Valery; Borstnik,Urban; Taillefumier,Mathieu;
 Jakobovits,Alice Shoshana; Lazzaro,Alfio; Pabst,Hans; Mueller,Tiziano;
 Schade,Robert; Guidon,Manuel; Andermatt,Samuel; Holmberg,Nico;
 Schenter,Gregory K.; Hehn,Anna; Bussy,Augustin; Belleflamme,Fabian;
 Tabacchi,Gloria; Gloess,Andreas; Lass,Michael; Bethune,Iain;
 Mundy,Christopher J.; Plessl,Christian; Watkins,Matt;
 VandeVondele,Joost; Krack,Matthias; Hutter,Juerg. 
 The Journal of Chemical Physics, 152 (19), (2020). 
 CP2K: An electronic structure and molecular dynamics software package -
 Quickstep: Efficient and accurate electronic structure calculations.
 https://doi.org/10.1063/5.0007045

 Schuett, Ole; Messmer, Peter; Hutter, Juerg; VandeVondele, Joost. 
 Electronic Structure Calculations on Graphics Processing Units, John
 Wiley & Sons, Ltd, 173-190 (2016). 
 GPU-Accelerated Sparse Matrix-Matrix Multiplication for
 Linear Scaling Density Functional Theory.
 https://doi.org/10.1002/9781118670712.ch8

 Heinecke, A; Henry, G; Hutchinson, M; Pabst, H. 
 Proceedings of Intl. Supercomputing Conference, 981-991 (2016). 
 LIBXSMM: Accelerating Small Matrix Multiplications
 by Runtime Code Generation.
 https://doi.org/10.1109/SC.2016.83

 Borstnik, U; VandeVondele, J; Weber, V; Hutter, J. 
 PARALLEL COMPUTING, 40 (5-6), 47-58 (2014). 
 Sparse matrix multiplication: The distributed block-compressed sparse
 row library.
 https://doi.org/10.1016/j.parco.2014.03.012

 Hutter, J; Iannuzzi, M; Schiffmann, F; VandeVondele, J. 
 WIREs Comput Mol Sci., 4 (1), 15-25 (2014). 
 CP2K: atomistic simulations of condensed matter systems.
 https://doi.org/10.1002/wcms.1159

 Guidon, M; Hutter, J; VandeVondele, J. 
 JOURNAL OF CHEMICAL THEORY AND COMPUTATION, 5 (11), 3010-3021 (2009). 
 Robust Periodic Hartree-Fock Exchange for Large-Scale Simulations Using
 Gaussian Basis Sets.
 https://doi.org/10.1021/ct900494g

 Guidon, M; Schiffmann, F; Hutter, J; VandeVondele, J. 
 JOURNAL OF CHEMICAL PHYSICS, 128 (21), 214104 (2008). 
 Ab initio molecular dynamics using hybrid density functionals.
 https://doi.org/10.1063/1.2931945

 Frigo, M; Johnson, SG. 
 PROCEEDINGS OF THE IEEE, 93 (2), 216-231 (2005). 
 The design and implementation of FFTW3.
 https://doi.org/10.1109/JPROC.2004.840301

 Iannuzzi, M; Chassaing, T; Wallman, T; Hutter, J. 
 CHIMIA, 59 (7-8), 499-503 (2005). 
 Ground and excited state density functional calculations with the
 Gaussian and augmented-plane-wave method.
 https://doi.org/10.2533/000942905777676164

 VandeVondele, J; Hutter, J. 
 JOURNAL OF CHEMICAL PHYSICS, 118 (10), 4365-4369 (2003). 
 An efficient orbital transformation method for electronic structure
 calculations.
 https://doi.org/10.1063/1.1543154

 Martin,Richard L.. 
 The Journal of Chemical Physics, 118 (11), 4775-4777 (2003). 
 Natural transition orbitals.
 https://doi.org/10.1063/1.1558471

 Lippert, G; Hutter, J; Parrinello, M. 
 THEORETICAL CHEMISTRY ACCOUNTS, 103 (2), 124-140 (1999). 
 The Gaussian and augmented-plane-wave density functional method for ab
 initio molecular dynamics simulations.
 https://doi.org/10.1007/s002140050523

 Krack, M; Parrinello, M. 
 PHYSICAL CHEMISTRY CHEMICAL PHYSICS, 2 (10), 2105-2112 (2000). 
 All-electron ab-initio molecular dynamics.
 https://doi.org/10.1039/b001167n

 Martyna, GJ; Tuckerman, ME. 
 JOURNAL OF CHEMICAL PHYSICS, 110 (6), 2810-2821 (1999). 
 A reciprocal space based method for treating long range interactions in
 ab initio and force-field-based calculations in clusters.
 https://doi.org/10.1063/1.477923

 Perdew, JP; Burke, K; Ernzerhof, M. 
 PHYSICAL REVIEW LETTERS, 77 (18), 3865-3868 (1996). 
 Generalized gradient approximation made simple.
 https://doi.org/10.1103/PhysRevLett.77.3865


 -------------------------------------------------------------------------------
 -                                                                             -
 -                                T I M I N G                                  -
 -                                                                             -
 -------------------------------------------------------------------------------
 SUBROUTINE                       CALLS  ASD         SELF TIME        TOTAL TIME
                                MAXIMUM       AVERAGE  MAXIMUM  AVERAGE  MAXIMUM
 CP2K                                 1  1.0    5.077    5.393 8966.780 8966.850
 qs_energies                          1  2.0    0.039    0.131 8903.971 8904.057
 qs_energies_properties               1  3.0    0.000    0.013 7396.080 7396.170
 tddfpt                               1  4.0    0.011    0.066 7396.080 7396.170
 tddfpt_soc_energies                  1  5.0    0.000    0.011 7366.291 7366.373
 tddfpt_energies                      2  6.0    0.010    0.065 7285.181 7285.302
 tddfpt_davidson_solver               4  7.0    0.027    0.119 6632.615 6632.690
 tddfpt_compute_Aop_evects           14  8.0    0.007    0.055 5856.653 5856.921
 fhxc_kernel                         14  9.0    0.025    0.079 3950.017 3950.263
 mp_waitall_1                    348740 14.3 2369.057 2419.473 2369.057 2419.473
 qs_rho_update_rho_low              170  9.2    0.015    0.074 1821.435 1822.669
 calculate_rho_elec                 170 10.2    0.362    0.623 1737.501 1739.701
 cp_dbcsr_sm_fm_multiply            886  9.5    0.011    0.023 1724.041 1737.865
 density_rs2pw                      170 11.2    0.016    0.061 1708.244 1712.520
 integrate_v_rspace                 167  9.8    0.006    0.030 1672.901 1675.700
 potential_pw2rs                    167 10.8    0.046    0.118 1631.926 1641.292
 tddfpt_apply_hfx                    14  9.0    0.002    0.013 1610.164 1610.309
 transfer_pw2rs                     933 11.8    0.010    0.033 1506.930 1515.853
 transfer_rs2pw                     950 12.1    0.009    0.033 1502.794 1511.271
 scf_env_do_scf                       1  3.0    0.002    0.016 1479.312 1479.333
 dbcsr_complete_redistribute       2874 11.5    0.067    0.116 1397.471 1426.852
 scf_env_do_scf_inner_loop           27  4.0    0.011    0.057 1335.269 1335.364
 mp_sendrecv_dv                   64770 14.2 1301.798 1308.882 1301.798 1308.882
 integrate_four_center              307 10.8    0.082    0.140 1071.793 1075.161
 copy_dbcsr_to_fm                   962 10.4    0.007    0.020  998.783 1013.425
 dbcsr_multiply_generic            1813 10.9    0.060    0.109  952.738  980.014
 transfer_pw2rs_70                  167 12.8    4.528    7.662  932.098  965.852
 tddft_hfx_matrix                   280 10.0    0.013    0.043  918.549  921.800
 transfer_rs2pw_70                  170 13.2    2.848    3.608  851.919  870.021
 pw_transfer                       3736 12.1    0.306    0.507  760.343  767.548
 fft_wrap_pw1pw2                   3443 13.2    0.035    0.081  759.079  766.236
 fft3d_ps                          3443 15.2   79.467   85.474  716.321  725.256
 copy_fm_to_dbcsr                  1908 10.6    0.004    0.017  654.636  684.234
 mp_alltoall_d11v                 11941 12.7  607.390  654.567  607.390  654.567
 cp_fm_syevd                         81  9.2    0.007    0.048  600.984  602.190
 tddfpt_print_nto_analysis            2  7.0    0.017    0.058  561.343  561.690
 qs_scf_new_mos                      27  5.0    0.000    0.011  549.653  549.961
 qs_scf_loop_do_ot                   27  6.0    0.000    0.013  549.653  549.961
 integrate_four_center_getP         307 11.8    0.039    0.068  546.077  548.992
 qs_ks_update_qs_env                 29  5.0    0.000    0.013  546.762  547.698
 rebuild_ks_matrix                   27  6.0    0.004    0.046  543.251  544.308
 qs_ks_build_kohn_sham_matrix        27  7.0    0.022    0.089  543.247  544.308
 ot_scf_mini                         27  7.0    0.001    0.013  531.764  532.143
 mp_alltoall_z22v                  3443 17.2  511.090  524.192  511.090  524.192
 fft_wrap_pw1pw2_600               2094 14.3    8.056    9.517  516.042  522.580
 tddfpt_orthonormalize_psi1_psi      16  7.9    0.008    0.038  507.405  510.430
 mp_alltoall_i11v                  9678 12.5  501.619  502.420  501.619  502.420
 cp_fm_redistribute_end              81 10.2  270.931  490.965  276.279  494.368
 integrate_four_center_dist_KS      307 11.8    0.039    0.078  485.812  486.498
 mp_sum_l                          7541 11.3  443.540  460.052  443.540  460.052
 cp_fm_syevd_base                    81 10.2  214.342  433.363  214.342  433.363
 cp_dbcsr_sm_fm_multiply_core       886 10.5    0.002    0.024  358.684  384.180
 cp_fm_geeig                         20  8.0    0.006    0.037  365.233  365.714
 tddfpt_apply_xc_analytic           140 10.0    1.136    1.853  337.036  338.065
 xc_pw_derive                      1221 11.7    0.031    0.066  310.202  315.354
 mp_cart_sub                       1932 12.4  310.774  311.862  310.774  311.862
 tddfpt_apply_energy_diff            14  9.0    0.000    0.001  296.465  296.606
 mp_waitany                       33810 13.8  268.303  296.137  268.303  296.137
 ot_mini                             27  8.0    0.008    0.036  287.004  287.435
 cp_dbcsr_plus_fm_fm_t_native       141 10.0    0.003    0.034  283.847  285.773
 dbcsr_desymmetrize_deep            963 11.4    0.013    0.035  257.628  273.652
 mp_sum_dv                         4707 10.4  257.106  262.769  257.106  262.769
 multiply_cannon                   1813 11.9    0.087    0.103  241.083  262.235
 sum_up_and_integrate                27  8.0    0.002    0.013  256.748  257.398
 yz_to_x                           1281 16.6    6.714    7.917  244.695  255.829
 transfer_rs2pw_30                  170 13.2    0.354    0.456  248.749  255.703
 x_to_yz                           1488 15.9   10.019   14.522  248.255  252.226
 mp_alltoall_i22                   3868 12.5  201.165  242.811  201.165  242.811
 transfer_pw2rs_30                  167 12.8    0.488    0.651  233.594  241.072
 mp_sync                           1624 12.5  215.858  240.890  215.858  240.890
 qs_ot_get_derivative                27  9.0    0.007    0.035  237.321  237.639
 cp_fm_trace_a1b1t1_aa             3880  9.0    0.007    0.019  224.790  227.985
 transfer_rs2pw_10                  170 13.2    0.079    0.110  204.411  212.706
 transfer_pw2rs_10                  167 12.8    0.115    0.148  202.194  210.262
 make_m2s                          3626 11.9    0.031    0.053  190.541  205.737
 make_images                       3626 12.9    0.051    0.082  190.468  205.664
 qs_ot_get_p                         29  7.9    0.002    0.035  199.466  199.850
 make_images_sizes                 3626 13.9    0.003    0.015  189.739  197.803
 mp_alltoall_i44                   3626 14.9  189.736  197.801  189.736  197.801
 tddfpt_compute_residual_vects       10  8.0    0.000    0.000  185.750  186.101
 -------------------------------------------------------------------------------

 The number of warnings for this run is : 1
 
 -------------------------------------------------------------------------------
  **** **** ******  **  PROGRAM ENDED AT                 2024-02-01 11:42:28.211
 ***** ** ***  *** **   PROGRAM RAN ON                               nesh-srp120
 **    ****   ******    PROGRAM RAN BY                                  suphc355
 ***** **    ** ** **   PROGRAM PROCESS ID                                445647
  **** **  *******  **  PROGRAM STOPPED IN /gxfs_work/cau/suphc355/homologes/H2X
                                           /AE/S
