 DBCSR| CPU Multiplication driver                                           XSMM (U)
 DBCSR| Multrec recursion limit                                              512 (U)
 DBCSR| Multiplication stack size                                           1000 (D)
 DBCSR| Maximum elements for images                                    UNLIMITED (U)
 DBCSR| Multiplicative factor virtual images                                   1 (U)
 DBCSR| Use multiplication densification                                       T (D)
 DBCSR| Multiplication size stacks                                             3 (U)
 DBCSR| Use memory pool for CPU allocation                                     F (U)
 DBCSR| Number of 3D layers                                               SINGLE (U)
 DBCSR| Use MPI memory allocation                                              F (U)
 DBCSR| Use RMA algorithm                                                      F (U)
 DBCSR| Use Communication thread                                               T (U)
 DBCSR| Communication thread load                                             87 (D)
 DBCSR| MPI: My process id                                                     0
 DBCSR| MPI: Number of processes                                             128
 DBCSR| OMP: Current number of threads                                         1
 DBCSR| OMP: Max number of threads                                             1
 DBCSR| Split modifier for TAS multiplication algorithm                  1.0E+00 (U)


  **** **** ******  **  PROGRAM STARTED AT               2024-02-02 09:43:22.996
 ***** ** ***  *** **   PROGRAM STARTED ON                           nesh-clk386
 **    ****   ******    PROGRAM STARTED BY                              suphc355
 ***** **    ** ** **   PROGRAM PROCESS ID                               3477436
  **** **  *******  **  PROGRAM STARTED IN /gxfs_work/cau/suphc355/homologes/H2X
                                           /AE/S

 CP2K| version string:                 CP2K version 2024.1 (Development Version)
 CP2K| source code revision number:                                  git:b6f9133
 CP2K| cp2kflags: omp libint fftw3 libxc libgrpp parallel mpi_f08 scalapack cosm
 CP2K|            a xsmm spglib mkl
 CP2K| is freely available from                            https://www.cp2k.org/
 CP2K| Program compiled at                          Fr 26. Jan 09:14:30 CET 2024
 CP2K| Program compiled on                                           nesh-login3
 CP2K| Program compiled for                                                local
 CP2K| Data directory path            /gxfs_home/cau/suphc355/software/cp2k/data
 CP2K| Input file name                                                AE_aug.inp
 
 GLOBAL| Force Environment number                                              1
 GLOBAL| Basis set file name                                  ../../../basis_aug
 GLOBAL| Potential file name                                           POTENTIAL
 GLOBAL| MM Potential file name                                     MM_POTENTIAL
 GLOBAL| Coordinate file name                                            opt.xyz
 GLOBAL| Method name                                                        CP2K
 GLOBAL| Project name                                                 H2S_AE_aug
 GLOBAL| Run type                                                         ENERGY
 GLOBAL| FFT library                                                       FFTW3
 GLOBAL| Diagonalization library                                       ScaLAPACK
 GLOBAL| DGEMM library                                                      BLAS
 GLOBAL| Orthonormality check for eigenvectors                          DISABLED
 GLOBAL| Matrix multiplication library                                     COSMA
 GLOBAL| All-to-all communication in single precision                          F
 GLOBAL| FFTs using library dependent lengths                                  F
 GLOBAL| Grid backend                                                       AUTO
 GLOBAL| Global print level                                               MEDIUM
 GLOBAL| MPI I/O enabled                                                       T
 GLOBAL| Total number of message passing processes                           128
 GLOBAL| Number of threads for this process                                    1
 GLOBAL| This output is from process                                           0
 GLOBAL| Stack size for threads created by OpenMP (OMP_STACKSIZE)        default
 GLOBAL| CPU model name                Intel(R) Xeon(R) Gold 6226R CPU @ 2.90GHz
 GLOBAL| CPUID                                                              1003

 MEMORY| system memory details [Kb]
 MEMORY|                        rank 0           min           max       average
 MEMORY| MemTotal            196683224     196683224     196683224     196683224
 MEMORY| MemFree             175705492     174770908     176880028     175705077
 MEMORY| Buffers                554276        303116        942540        643598
 MEMORY| Cached                1139808        539012       1164840        947199
 MEMORY| Slab                   790680        693872       1341548        993432
 MEMORY| SReclaimable           243028        168420        243028        209640
 MEMORY| MemLikelyFree       177642604     177116668     177890576     177505515


 *** Fundamental physical constants (SI units) ***

 *** Literature: B. J. Mohr and B. N. Taylor,
 ***             CODATA recommended values of the fundamental physical
 ***             constants: 2006, Web Version 5.1
 ***             http://physics.nist.gov/constants

 Speed of light in vacuum [m/s]                             2.99792458000000E+08
 Magnetic constant or permeability of vacuum [N/A**2]       1.25663706143592E-06
 Electric constant or permittivity of vacuum [F/m]          8.85418781762039E-12
 Planck constant (h) [J*s]                                  6.62606896000000E-34
 Planck constant (h-bar) [J*s]                              1.05457162825177E-34
 Elementary charge [C]                                      1.60217648700000E-19
 Electron mass [kg]                                         9.10938215000000E-31
 Electron g factor [ ]                                     -2.00231930436220E+00
 Proton mass [kg]                                           1.67262163700000E-27
 Fine-structure constant                                    7.29735253760000E-03
 Rydberg constant [1/m]                                     1.09737315685270E+07
 Avogadro constant [1/mol]                                  6.02214179000000E+23
 Boltzmann constant [J/K]                                   1.38065040000000E-23
 Atomic mass unit [kg]                                      1.66053878200000E-27
 Bohr radius [m]                                            5.29177208590000E-11

 *** Conversion factors ***

 [u] -> [a.u.]                                              1.82288848426455E+03
 [Angstrom] -> [Bohr] = [a.u.]                              1.88972613288564E+00
 [a.u.] = [Bohr] -> [Angstrom]                              5.29177208590000E-01
 [a.u.] -> [s]                                              2.41888432650478E-17
 [a.u.] -> [fs]                                             2.41888432650478E-02
 [a.u.] -> [J]                                              4.35974393937059E-18
 [a.u.] -> [N]                                              8.23872205491840E-08
 [a.u.] -> [K]                                              3.15774647902944E+05
 [a.u.] -> [kJ/mol]                                         2.62549961709828E+03
 [a.u.] -> [kcal/mol]                                       6.27509468713739E+02
 [a.u.] -> [Pa]                                             2.94210107994716E+13
 [a.u.] -> [bar]                                            2.94210107994716E+08
 [a.u.] -> [atm]                                            2.90362800883016E+08
 [a.u.] -> [eV]                                             2.72113838565563E+01
 [a.u.] -> [Hz]                                             6.57968392072181E+15
 [a.u.] -> [1/cm] (wave numbers)                            2.19474631370540E+05
 [a.u./Bohr**2] -> [1/cm]                                   5.14048714338585E+03
 

 CELL_TOP| Volume [angstrom^3]:                                      8000.000000
 CELL_TOP| Vector a [angstrom    20.000     0.000     0.000   |a| =    20.000000
 CELL_TOP| Vector b [angstrom     0.000    20.000     0.000   |b| =    20.000000
 CELL_TOP| Vector c [angstrom     0.000     0.000    20.000   |c| =    20.000000
 CELL_TOP| Angle (b,c), alpha [degree]:                                90.000000
 CELL_TOP| Angle (a,c), beta  [degree]:                                90.000000
 CELL_TOP| Angle (a,b), gamma [degree]:                                90.000000
 CELL_TOP| Numerically orthorhombic:                                         YES
 CELL_TOP| Periodicity                                                      NONE
 
 GENERATE|  Preliminary Number of Bonds generated:                             0
 GENERATE|  Achieved consistency in connectivity generation.

 CELL| Volume [angstrom^3]:                                          8000.000000
 CELL| Vector a [angstrom]:      20.000     0.000     0.000   |a| =    20.000000
 CELL| Vector b [angstrom]:       0.000    20.000     0.000   |b| =    20.000000
 CELL| Vector c [angstrom]:       0.000     0.000    20.000   |c| =    20.000000
 CELL| Angle (b,c), alpha [degree]:                                    90.000000
 CELL| Angle (a,c), beta  [degree]:                                    90.000000
 CELL| Angle (a,b), gamma [degree]:                                    90.000000
 CELL| Numerically orthorhombic:                                             YES
 CELL| Periodicity                                                          NONE

 CELL_REF| Volume [angstrom^3]:                                      8000.000000
 CELL_REF| Vector a [angstrom    20.000     0.000     0.000   |a| =    20.000000
 CELL_REF| Vector b [angstrom     0.000    20.000     0.000   |b| =    20.000000
 CELL_REF| Vector c [angstrom     0.000     0.000    20.000   |c| =    20.000000
 CELL_REF| Angle (b,c), alpha [degree]:                                90.000000
 CELL_REF| Angle (a,c), beta  [degree]:                                90.000000
 CELL_REF| Angle (a,b), gamma [degree]:                                90.000000
 CELL_REF| Numerically orthorhombic:                                         YES
 CELL_REF| Periodicity                                                      NONE

 *******************************************************************************
 *******************************************************************************
 **                                                                           **
 **     #####                         ##              ##                      **
 **    ##   ##            ##          ##              ##                      **
 **   ##     ##                       ##            ######                    **
 **   ##     ##  ##   ##  ##   #####  ##  ##   ####   ##    #####    #####    **
 **   ##     ##  ##   ##  ##  ##      ## ##   ##      ##   ##   ##  ##   ##   **
 **   ##  ## ##  ##   ##  ##  ##      ####     ###    ##   ######   ######    **
 **    ##  ###   ##   ##  ##  ##      ## ##      ##   ##   ##       ##        **
 **     #######   #####   ##   #####  ##  ##  ####    ##    #####   ##        **
 **           ##                                                    ##        **
 **                                                                           **
 **                                                ... make the atoms dance   **
 **                                                                           **
 **            Copyright (C) by CP2K developers group (2000-2024)             **
 **                      J. Chem. Phys. 152, 194103 (2020)                    **
 **                                                                           **
 *******************************************************************************

 DFT| Spin restricted Kohn-Sham (RKS) calculation                            RKS
 DFT| Multiplicity                                                             1
 DFT| Number of spin states                                                    1
 DFT| Charge                                                                   0
 DFT| Self-interaction correction (SIC)                                       NO
 DFT| Cutoffs: density                                              1.000000E-10
 DFT|          gradient                                             1.000000E-10
 DFT|          tau                                                  1.000000E-10
 DFT|          cutoff_smoothing_range                               0.000000E+00
 DFT| XC density smoothing                                                  NONE
 DFT| XC derivatives                                                          PW

 FUNCTIONAL| PBE:
 FUNCTIONAL| J.P.Perdew, K.Burke, M.Ernzerhof, Phys. Rev. Letter, vol. 77, n 18,
 FUNCTIONAL|  pp. 3865-3868, (1996)sx=0.750sc=1.000{spin unpolarized}           


 QS| Method:                                                                GAPW
 QS| Density plane wave grid type                        NON-SPHERICAL FULLSPACE
 QS| Number of grid levels:                                                    5
 QS| Density cutoff [a.u.]:                                                600.0
 QS| Multi grid cutoff [a.u.]: 1) grid level                               600.0
 QS|                           2) grid level                               200.0
 QS|                           3) grid level                                66.7
 QS|                           4) grid level                                22.2
 QS|                           5) grid level                                 7.4
 QS| Grid level progression factor:                                          3.0
 QS| Relative density cutoff [a.u.]:                                        40.0
 QS| Interaction thresholds: eps_pgf_orb:                                1.0E-30
 QS|                         eps_filter_matrix:                          0.0E+00
 QS|                         eps_core_charge:                            1.0E-17
 QS|                         eps_rho_gspace:                             1.0E-15
 QS|                         eps_rho_rspace:                             1.0E-15
 QS|                         eps_gvg_rspace:                             3.2E-08
 QS|                         eps_ppl:                                    1.0E-02
 QS|                         eps_ppnl:                                   3.2E-10
 QS| GAPW|      One center basis from orbital basis primitives
 QS| GAPW|                   eps_fit:                                    1.0E-04
 QS| GAPW|                   eps_iso:                                    1.0E-12
 QS| GAPW|                   eps_svd:                                    1.0E-08
 QS| GAPW|                   eps_cpc:                                    1.0E-15
 QS| GAPW|   atom-r-grid: quadrature:                                     GC_LOG
 QS| GAPW|      atom-s-grid:  max l :                                          8
 QS| GAPW|      max_l_rho0 :                                                   2


 ATOMIC KIND INFORMATION

  1. Atomic kind: H                                     Number of atoms:       2

     Orbital Basis Set                                               aug-cc-pVQZ

       Number of orbital shell sets:                                           8
       Number of orbital shells:                                              14
       Number of primitive Cartesian functions:                               16
       Number of Cartesian basis functions:                                   55
       Number of spherical basis functions:                                   46
       Norm type:                                                              2

       Normalised Cartesian orbitals:

                        Set   Shell   Orbital            Exponent    Coefficient

                          1       1    1s               82.640000       0.000000
                                                        12.410000       0.000000
                                                         2.824000       0.000000
                                                         0.797700       0.601575
                                                         0.258100       0.000000
                                                         0.089890       0.000000

                          1       2    2s               82.640000       0.000000
                                                        12.410000       0.000000
                                                         2.824000       0.000000
                                                         0.797700       0.000000
                                                         0.258100       0.258078
                                                         0.089890       0.000000

                          1       3    3s               82.640000       0.039186
                                                        12.410000       0.072302
                                                         2.824000       0.117344
                                                         0.797700       0.154530
                                                         0.258100       0.128360
                                                         0.089890       0.034648

                          1       4    4s               82.640000       0.000000
                                                        12.410000       0.000000
                                                         2.824000       0.000000
                                                         0.797700       0.000000
                                                         0.258100       0.000000
                                                         0.089890       0.117002

                          2       1    1s                0.023630       0.042954

                          3       1    1px               2.292000       4.019836
                                                         0.838000       0.000000
                                                         0.292000       0.000000
                          3       1    1py               2.292000       4.019836
                                                         0.838000       0.000000
                                                         0.292000       0.000000
                          3       1    1pz               2.292000       4.019836
                                                         0.838000       0.000000
                                                         0.292000       0.000000

                          3       2    2px               2.292000       0.000000
                                                         0.838000       1.142865
                                                         0.292000       0.000000
                          3       2    2py               2.292000       0.000000
                                                         0.838000       1.142865
                                                         0.292000       0.000000
                          3       2    2pz               2.292000       0.000000
                                                         0.838000       1.142865
                                                         0.292000       0.000000

                          3       3    3px               2.292000       0.000000
                                                         0.838000       0.000000
                                                         0.292000       0.305963
                          3       3    3py               2.292000       0.000000
                                                         0.838000       0.000000
                                                         0.292000       0.305963
                          3       3    3pz               2.292000       0.000000
                                                         0.838000       0.000000
                                                         0.292000       0.305963

                          4       1    1px               0.084800       0.065228
                          4       1    1py               0.084800       0.065228
                          4       1    1pz               0.084800       0.065228

                          5       1    1dx2              2.062000       5.840024
                                                         0.662000       0.000000
                          5       1    1dxy              2.062000      10.115218
                                                         0.662000       0.000000
                          5       1    1dxz              2.062000      10.115218
                                                         0.662000       0.000000
                          5       1    1dy2              2.062000       5.840024
                                                         0.662000       0.000000
                          5       1    1dyz              2.062000      10.115218
                                                         0.662000       0.000000
                          5       1    1dz2              2.062000       5.840024
                                                         0.662000       0.000000

                          5       2    2dx2              2.062000       0.000000
                                                         0.662000       0.799670
                          5       2    2dxy              2.062000       0.000000
                                                         0.662000       1.385069
                          5       2    2dxz              2.062000       0.000000
                                                         0.662000       1.385069
                          5       2    2dy2              2.062000       0.000000
                                                         0.662000       0.799670
                          5       2    2dyz              2.062000       0.000000
                                                         0.662000       1.385069
                          5       2    2dz2              2.062000       0.000000
                                                         0.662000       0.799670

                          6       1    1dx2              0.190000       0.089997
                          6       1    1dxy              0.190000       0.155879
                          6       1    1dxz              0.190000       0.155879
                          6       1    1dy2              0.190000       0.089997
                          6       1    1dyz              0.190000       0.155879
                          6       1    1dz2              0.190000       0.089997

                          7       1    1fx3              1.397000       3.123535
                          7       1    1fx2y             1.397000       6.984436
                          7       1    1fx2z             1.397000       6.984436
                          7       1    1fxy2             1.397000       6.984436
                          7       1    1fxyz             1.397000      12.097399
                          7       1    1fxz2             1.397000       6.984436
                          7       1    1fy3              1.397000       3.123535
                          7       1    1fy2z             1.397000       6.984436
                          7       1    1fyz2             1.397000       6.984436
                          7       1    1fz3              1.397000       3.123535

                          8       1    1fx3              0.360000       0.147787
                          8       1    1fx2y             0.360000       0.330461
                          8       1    1fx2z             0.360000       0.330461
                          8       1    1fxy2             0.360000       0.330461
                          8       1    1fxyz             0.360000       0.572375
                          8       1    1fxz2             0.360000       0.330461
                          8       1    1fy3              0.360000       0.147787
                          8       1    1fy2z             0.360000       0.330461
                          8       1    1fyz2             0.360000       0.330461
                          8       1    1fz3              0.360000       0.147787

       Atomic covalent radius [Angstrom]:                                  0.320

       Atomic van der Waals radius [Angstrom]:                             1.090

     The atoms of this atomic kind are PAW atoms (GAPW):
       Hard Gaussian function radius:                                      1.200
       Rho0 radius:                                                        1.200
       Maximum GTO radius used for PAW projector construction:            24.566

     GAPW Soft Basis Set                                        aug-cc-pVQZ_soft

       Number of orbital shell sets:                                           8
       Number of orbital shells:                                              14
       Number of primitive Cartesian functions:                               14
       Number of Cartesian basis functions:                                   55
       Number of spherical basis functions:                                   46
       Norm type:                                                              2

       Normalised Cartesian orbitals:

                        Set   Shell   Orbital            Exponent    Coefficient

                          1       1    1s                2.824000       0.000000
                                                         0.797700       0.601575
                                                         0.258100       0.000000
                                                         0.089890       0.000000

                          1       2    2s                2.824000       0.000000
                                                         0.797700       0.000000
                                                         0.258100       0.258078
                                                         0.089890       0.000000

                          1       3    3s                2.824000       0.117344
                                                         0.797700       0.154530
                                                         0.258100       0.128360
                                                         0.089890       0.034648

                          1       4    4s                2.824000       0.000000
                                                         0.797700       0.000000
                                                         0.258100       0.000000
                                                         0.089890       0.117002

                          2       1    1s                0.023630       0.042954

                          3       1    1px               2.292000       4.019836
                                                         0.838000       0.000000
                                                         0.292000       0.000000
                          3       1    1py               2.292000       4.019836
                                                         0.838000       0.000000
                                                         0.292000       0.000000
                          3       1    1pz               2.292000       4.019836
                                                         0.838000       0.000000
                                                         0.292000       0.000000

                          3       2    2px               2.292000       0.000000
                                                         0.838000       1.142865
                                                         0.292000       0.000000
                          3       2    2py               2.292000       0.000000
                                                         0.838000       1.142865
                                                         0.292000       0.000000
                          3       2    2pz               2.292000       0.000000
                                                         0.838000       1.142865
                                                         0.292000       0.000000

                          3       3    3px               2.292000       0.000000
                                                         0.838000       0.000000
                                                         0.292000       0.305963
                          3       3    3py               2.292000       0.000000
                                                         0.838000       0.000000
                                                         0.292000       0.305963
                          3       3    3pz               2.292000       0.000000
                                                         0.838000       0.000000
                                                         0.292000       0.305963

                          4       1    1px               0.084800       0.065228
                          4       1    1py               0.084800       0.065228
                          4       1    1pz               0.084800       0.065228

                          5       1    1dx2              2.062000       5.840024
                                                         0.662000       0.000000
                          5       1    1dxy              2.062000      10.115218
                                                         0.662000       0.000000
                          5       1    1dxz              2.062000      10.115218
                                                         0.662000       0.000000
                          5       1    1dy2              2.062000       5.840024
                                                         0.662000       0.000000
                          5       1    1dyz              2.062000      10.115218
                                                         0.662000       0.000000
                          5       1    1dz2              2.062000       5.840024
                                                         0.662000       0.000000

                          5       2    2dx2              2.062000       0.000000
                                                         0.662000       0.799670
                          5       2    2dxy              2.062000       0.000000
                                                         0.662000       1.385069
                          5       2    2dxz              2.062000       0.000000
                                                         0.662000       1.385069
                          5       2    2dy2              2.062000       0.000000
                                                         0.662000       0.799670
                          5       2    2dyz              2.062000       0.000000
                                                         0.662000       1.385069
                          5       2    2dz2              2.062000       0.000000
                                                         0.662000       0.799670

                          6       1    1dx2              0.190000       0.089997
                          6       1    1dxy              0.190000       0.155879
                          6       1    1dxz              0.190000       0.155879
                          6       1    1dy2              0.190000       0.089997
                          6       1    1dyz              0.190000       0.155879
                          6       1    1dz2              0.190000       0.089997

                          7       1    1fx3              1.397000       3.123535
                          7       1    1fx2y             1.397000       6.984436
                          7       1    1fx2z             1.397000       6.984436
                          7       1    1fxy2             1.397000       6.984436
                          7       1    1fxyz             1.397000      12.097399
                          7       1    1fxz2             1.397000       6.984436
                          7       1    1fy3              1.397000       3.123535
                          7       1    1fy2z             1.397000       6.984436
                          7       1    1fyz2             1.397000       6.984436
                          7       1    1fz3              1.397000       3.123535

                          8       1    1fx3              0.360000       0.147787
                          8       1    1fx2y             0.360000       0.330461
                          8       1    1fx2z             0.360000       0.330461
                          8       1    1fxy2             0.360000       0.330461
                          8       1    1fxyz             0.360000       0.572375
                          8       1    1fxz2             0.360000       0.330461
                          8       1    1fy3              0.360000       0.147787
                          8       1    1fy2z             0.360000       0.330461
                          8       1    1fyz2             0.360000       0.330461
                          8       1    1fz3              0.360000       0.147787

     AE Potential information for                                            ALL

       Description:                                       All-electron potential
                                          Krack, Parrinello, PCCP 2, 2105 (2000)

       Gaussian exponent of the core charge distribution:              12.500000
       Electronic configuration (s p d ...):                           1   0   0

  2. Atomic kind: S                                     Number of atoms:       1

     Orbital Basis Set                                               aug-cc-pVQZ

       Number of orbital shell sets:                                          10
       Number of orbital shells:                                              22
       Number of primitive Cartesian functions:                               38
       Number of Cartesian basis functions:                                  109
       Number of spherical basis functions:                                   84
       Norm type:                                                              2

       Normalised Cartesian orbitals:

                        Set   Shell   Orbital            Exponent    Coefficient

                          1       1    1s           727800.000000       0.419157
                                                    109000.000000       0.784464
                                                     24800.000000       1.358160
                                                      7014.000000       2.220672
                                                      2278.000000       3.453924
                                                       814.700000       5.054600
                                                       313.400000       6.662782
                                                       127.700000       7.267566
                                                        54.480000       5.499624
                                                        23.850000       2.041180
                                                         9.428000       0.167699
                                                         4.290000      -0.008048
                                                         1.909000       0.002524
                                                         0.627000      -0.000420
                                                         0.287300       0.000125
                                                         0.117200      -0.000018

                          1       2    2s           727800.000000      -0.115821
                                                    109000.000000      -0.216607
                                                     24800.000000      -0.375828
                                                      7014.000000      -0.615074
                                                      2278.000000      -0.966305
                                                       814.700000      -1.439541
                                                       313.400000      -2.001386
                                                       127.700000      -2.432752
                                                        54.480000      -2.388139
                                                        23.850000      -1.302634
                                                         9.428000       0.490160
                                                         4.290000       1.200040
                                                         1.909000       0.499763
                                                         0.627000       0.019555
                                                         0.287300      -0.002042
                                                         0.117200       0.000275

                          1       3    3s           727800.000000       0.000000
                                                    109000.000000       0.000000
                                                     24800.000000       0.000000
                                                      7014.000000       0.000000
                                                      2278.000000       0.000000
                                                       814.700000       0.000000
                                                       313.400000       0.000000
                                                       127.700000       0.000000
                                                        54.480000       0.000000
                                                        23.850000       0.000000
                                                         9.428000       0.000000
                                                         4.290000       0.000000
                                                         1.909000       0.000000
                                                         0.627000       0.502182
                                                         0.287300       0.000000
                                                         0.117200       0.000000

                          1       4    4s           727800.000000       0.000000
                                                    109000.000000       0.000000
                                                     24800.000000       0.000000
                                                      7014.000000       0.000000
                                                      2278.000000       0.000000
                                                       814.700000       0.000000
                                                       313.400000       0.000000
                                                       127.700000       0.000000
                                                        54.480000       0.000000
                                                        23.850000       0.000000
                                                         9.428000       0.000000
                                                         4.290000       0.000000
                                                         1.909000       0.000000
                                                         0.627000       0.000000
                                                         0.287300       0.279680
                                                         0.117200       0.000000

                          1       5    5s           727800.000000       0.033637
                                                    109000.000000       0.062827
                                                     24800.000000       0.109222
                                                      7014.000000       0.178353
                                                      2278.000000       0.281267
                                                       814.700000       0.418208
                                                       313.400000       0.586813
                                                       127.700000       0.716502
                                                        54.480000       0.727127
                                                        23.850000       0.407687
                                                         9.428000      -0.163171
                                                         4.290000      -0.532933
                                                         1.909000      -0.385618
                                                         0.627000       0.132474
                                                         0.287300       0.186505
                                                         0.117200       0.041179

                          1       6    6s           727800.000000       0.000000
                                                    109000.000000       0.000000
                                                     24800.000000       0.000000
                                                      7014.000000       0.000000
                                                      2278.000000       0.000000
                                                       814.700000       0.000000
                                                       313.400000       0.000000
                                                       127.700000       0.000000
                                                        54.480000       0.000000
                                                        23.850000       0.000000
                                                         9.428000       0.000000
                                                         4.290000       0.000000
                                                         1.909000       0.000000
                                                         0.627000       0.000000
                                                         0.287300       0.000000
                                                         0.117200       0.142760

                          2       1    1s                0.042800       0.067065

                          3       1    1px            1546.000000       6.096361
                                                       366.400000       8.627460
                                                       118.400000      11.042915
                                                        44.530000      12.167369
                                                        18.380000      10.704304
                                                         7.965000       6.710904
                                                         3.541000       2.621971
                                                         1.591000       0.435360
                                                         0.620500       0.011900
                                                         0.242000       0.000016
                                                         0.090140       0.000029
                          3       1    1py            1546.000000       6.096361
                                                       366.400000       8.627460
                                                       118.400000      11.042915
                                                        44.530000      12.167369
                                                        18.380000      10.704304
                                                         7.965000       6.710904
                                                         3.541000       2.621971
                                                         1.591000       0.435360
                                                         0.620500       0.011900
                                                         0.242000       0.000016
                                                         0.090140       0.000029
                          3       1    1pz            1546.000000       6.096361
                                                       366.400000       8.627460
                                                       118.400000      11.042915
                                                        44.530000      12.167369
                                                        18.380000      10.704304
                                                         7.965000       6.710904
                                                         3.541000       2.621971
                                                         1.591000       0.435360
                                                         0.620500       0.011900
                                                         0.242000       0.000016
                                                         0.090140       0.000029

                          3       2    2px            1546.000000       0.000000
                                                       366.400000       0.000000
                                                       118.400000       0.000000
                                                        44.530000       0.000000
                                                        18.380000       0.000000
                                                         7.965000       0.000000
                                                         3.541000       0.000000
                                                         1.591000       0.000000
                                                         0.620500       0.784996
                                                         0.242000       0.000000
                                                         0.090140       0.000000
                          3       2    2py            1546.000000       0.000000
                                                       366.400000       0.000000
                                                       118.400000       0.000000
                                                        44.530000       0.000000
                                                        18.380000       0.000000
                                                         7.965000       0.000000
                                                         3.541000       0.000000
                                                         1.591000       0.000000
                                                         0.620500       0.784996
                                                         0.242000       0.000000
                                                         0.090140       0.000000
                          3       2    2pz            1546.000000       0.000000
                                                       366.400000       0.000000
                                                       118.400000       0.000000
                                                        44.530000       0.000000
                                                        18.380000       0.000000
                                                         7.965000       0.000000
                                                         3.541000       0.000000
                                                         1.591000       0.000000
                                                         0.620500       0.784996
                                                         0.242000       0.000000
                                                         0.090140       0.000000

                          3       3    3px            1546.000000      -1.562979
                                                       366.400000      -2.190350
                                                       118.400000      -2.858551
                                                        44.530000      -3.158675
                                                        18.380000      -2.907508
                                                         7.965000      -1.831658
                                                         3.541000      -0.818282
                                                         1.591000       0.023514
                                                         0.620500       0.281689
                                                         0.242000       0.127217
                                                         0.090140       0.017521
                          3       3    3py            1546.000000      -1.562979
                                                       366.400000      -2.190350
                                                       118.400000      -2.858551
                                                        44.530000      -3.158675
                                                        18.380000      -2.907508
                                                         7.965000      -1.831658
                                                         3.541000      -0.818282
                                                         1.591000       0.023514
                                                         0.620500       0.281689
                                                         0.242000       0.127217
                                                         0.090140       0.017521
                          3       3    3pz            1546.000000      -1.562979
                                                       366.400000      -2.190350
                                                       118.400000      -2.858551
                                                        44.530000      -3.158675
                                                        18.380000      -2.907508
                                                         7.965000      -1.831658
                                                         3.541000      -0.818282
                                                         1.591000       0.023514
                                                         0.620500       0.281689
                                                         0.242000       0.127217
                                                         0.090140       0.017521

                          3       4    4px            1546.000000       0.000000
                                                       366.400000       0.000000
                                                       118.400000       0.000000
                                                        44.530000       0.000000
                                                        18.380000       0.000000
                                                         7.965000       0.000000
                                                         3.541000       0.000000
                                                         1.591000       0.000000
                                                         0.620500       0.000000
                                                         0.242000       0.241941
                                                         0.090140       0.000000
                          3       4    4py            1546.000000       0.000000
                                                       366.400000       0.000000
                                                       118.400000       0.000000
                                                        44.530000       0.000000
                                                        18.380000       0.000000
                                                         7.965000       0.000000
                                                         3.541000       0.000000
                                                         1.591000       0.000000
                                                         0.620500       0.000000
                                                         0.242000       0.241941
                                                         0.090140       0.000000
                          3       4    4pz            1546.000000       0.000000
                                                       366.400000       0.000000
                                                       118.400000       0.000000
                                                        44.530000       0.000000
                                                        18.380000       0.000000
                                                         7.965000       0.000000
                                                         3.541000       0.000000
                                                         1.591000       0.000000
                                                         0.620500       0.000000
                                                         0.242000       0.241941
                                                         0.090140       0.000000

                          3       5    5px            1546.000000       0.000000
                                                       366.400000       0.000000
                                                       118.400000       0.000000
                                                        44.530000       0.000000
                                                        18.380000       0.000000
                                                         7.965000       0.000000
                                                         3.541000       0.000000
                                                         1.591000       0.000000
                                                         0.620500       0.000000
                                                         0.242000       0.000000
                                                         0.090140       0.070402
                          3       5    5py            1546.000000       0.000000
                                                       366.400000       0.000000
                                                       118.400000       0.000000
                                                        44.530000       0.000000
                                                        18.380000       0.000000
                                                         7.965000       0.000000
                                                         3.541000       0.000000
                                                         1.591000       0.000000
                                                         0.620500       0.000000
                                                         0.242000       0.000000
                                                         0.090140       0.070402
                          3       5    5pz            1546.000000       0.000000
                                                       366.400000       0.000000
                                                       118.400000       0.000000
                                                        44.530000       0.000000
                                                        18.380000       0.000000
                                                         7.965000       0.000000
                                                         3.541000       0.000000
                                                         1.591000       0.000000
                                                         0.620500       0.000000
                                                         0.242000       0.000000
                                                         0.090140       0.070402

                          4       1    1px               0.031700       0.019066
                          4       1    1py               0.031700       0.019066
                          4       1    1pz               0.031700       0.019066

                          5       1    1dx2              1.250000       2.432215
                                                         0.504000       0.000000
                                                         0.203000       0.000000
                          5       1    1dxy              1.250000       4.212720
                                                         0.504000       0.000000
                                                         0.203000       0.000000
                          5       1    1dxz              1.250000       4.212720
                                                         0.504000       0.000000
                                                         0.203000       0.000000
                          5       1    1dy2              1.250000       2.432215
                                                         0.504000       0.000000
                                                         0.203000       0.000000
                          5       1    1dyz              1.250000       4.212720
                                                         0.504000       0.000000
                                                         0.203000       0.000000
                          5       1    1dz2              1.250000       2.432215
                                                         0.504000       0.000000
                                                         0.203000       0.000000

                          5       2    2dx2              1.250000       0.000000
                                                         0.504000       0.496207
                                                         0.203000       0.000000
                          5       2    2dxy              1.250000       0.000000
                                                         0.504000       0.859456
                                                         0.203000       0.000000
                          5       2    2dxz              1.250000       0.000000
                                                         0.504000       0.859456
                                                         0.203000       0.000000
                          5       2    2dy2              1.250000       0.000000
                                                         0.504000       0.496207
                                                         0.203000       0.000000
                          5       2    2dyz              1.250000       0.000000
                                                         0.504000       0.859456
                                                         0.203000       0.000000
                          5       2    2dz2              1.250000       0.000000
                                                         0.504000       0.496207
                                                         0.203000       0.000000

                          5       3    3dx2              1.250000       0.000000
                                                         0.504000       0.000000
                                                         0.203000       0.101048
                          5       3    3dxy              1.250000       0.000000
                                                         0.504000       0.000000
                                                         0.203000       0.175020
                          5       3    3dxz              1.250000       0.000000
                                                         0.504000       0.000000
                                                         0.203000       0.175020
                          5       3    3dy2              1.250000       0.000000
                                                         0.504000       0.000000
                                                         0.203000       0.101048
                          5       3    3dyz              1.250000       0.000000
                                                         0.504000       0.000000
                                                         0.203000       0.175020
                          5       3    3dz2              1.250000       0.000000
                                                         0.504000       0.000000
                                                         0.203000       0.101048

                          6       1    1dx2              0.074800       0.017609
                          6       1    1dxy              0.074800       0.030500
                          6       1    1dxz              0.074800       0.030500
                          6       1    1dy2              0.074800       0.017609
                          6       1    1dyz              0.074800       0.030500
                          6       1    1dz2              0.074800       0.017609

                          7       1    1fx3              0.869000       1.073369
                                                         0.335000       0.000000
                          7       1    1fx2y             0.869000       2.400125
                                                         0.335000       0.000000
                          7       1    1fx2z             0.869000       2.400125
                                                         0.335000       0.000000
                          7       1    1fxy2             0.869000       2.400125
                                                         0.335000       0.000000
                          7       1    1fxyz             0.869000       4.157139
                                                         0.335000       0.000000
                          7       1    1fxz2             0.869000       2.400125
                                                         0.335000       0.000000
                          7       1    1fy3              0.869000       1.073369
                                                         0.335000       0.000000
                          7       1    1fy2z             0.869000       2.400125
                                                         0.335000       0.000000
                          7       1    1fyz2             0.869000       2.400125
                                                         0.335000       0.000000
                          7       1    1fz3              0.869000       1.073369
                                                         0.335000       0.000000

                          7       2    2fx3              0.869000       0.000000
                                                         0.335000       0.125691
                          7       2    2fx2y             0.869000       0.000000
                                                         0.335000       0.281054
                          7       2    2fx2z             0.869000       0.000000
                                                         0.335000       0.281054
                          7       2    2fxy2             0.869000       0.000000
                                                         0.335000       0.281054
                          7       2    2fxyz             0.869000       0.000000
                                                         0.335000       0.486800
                          7       2    2fxz2             0.869000       0.000000
                                                         0.335000       0.281054
                          7       2    2fy3              0.869000       0.000000
                                                         0.335000       0.125691
                          7       2    2fy2z             0.869000       0.000000
                                                         0.335000       0.281054
                          7       2    2fyz2             0.869000       0.000000
                                                         0.335000       0.281054
                          7       2    2fz3              0.869000       0.000000
                                                         0.335000       0.125691

                          8       1    1fx3              0.140000       0.017650
                          8       1    1fx2y             0.140000       0.039466
                          8       1    1fx2z             0.140000       0.039466
                          8       1    1fxy2             0.140000       0.039466
                          8       1    1fxyz             0.140000       0.068358
                          8       1    1fxz2             0.140000       0.039466
                          8       1    1fy3              0.140000       0.017650
                          8       1    1fy2z             0.140000       0.039466
                          8       1    1fyz2             0.140000       0.039466
                          8       1    1fz3              0.140000       0.017650

                          9       1    1gx4              0.683000       0.390025
                          9       1    1gx3y             0.683000       1.031909
                          9       1    1gx3z             0.683000       1.031909
                          9       1    1gx2y2            0.683000       1.332189
                          9       1    1gx2yz            0.683000       2.307419
                          9       1    1gx2z2            0.683000       1.332189
                          9       1    1gxy3             0.683000       1.031909
                          9       1    1gxy2z            0.683000       2.307419
                          9       1    1gxyz2            0.683000       2.307419
                          9       1    1gxz3             0.683000       1.031909
                          9       1    1gy4              0.683000       0.390025
                          9       1    1gy3z             0.683000       1.031909
                          9       1    1gy2z2            0.683000       1.332189
                          9       1    1gyz3             0.683000       1.031909
                          9       1    1gz4              0.683000       0.390025

                         10       1    1gx4              0.297000       0.039493
                         10       1    1gx3y             0.297000       0.104488
                         10       1    1gx3z             0.297000       0.104488
                         10       1    1gx2y2            0.297000       0.134893
                         10       1    1gx2yz            0.297000       0.233641
                         10       1    1gx2z2            0.297000       0.134893
                         10       1    1gxy3             0.297000       0.104488
                         10       1    1gxy2z            0.297000       0.233641
                         10       1    1gxyz2            0.297000       0.233641
                         10       1    1gxz3             0.297000       0.104488
                         10       1    1gy4              0.297000       0.039493
                         10       1    1gy3z             0.297000       0.104488
                         10       1    1gy2z2            0.297000       0.134893
                         10       1    1gyz3             0.297000       0.104488
                         10       1    1gz4              0.297000       0.039493

       Atomic covalent radius [Angstrom]:                                  1.020

       Atomic van der Waals radius [Angstrom]:                             1.800

     The atoms of this atomic kind are PAW atoms (GAPW):
       Hard Gaussian function radius:                                      1.512
       Rho0 radius:                                                        1.512
       Maximum GTO radius used for PAW projector construction:            24.566

     GAPW Soft Basis Set                                        aug-cc-pVQZ_soft

       Number of orbital shell sets:                                          10
       Number of orbital shells:                                              22
       Number of primitive Cartesian functions:                               20
       Number of Cartesian basis functions:                                  109
       Number of spherical basis functions:                                   84
       Norm type:                                                              2

       Normalised Cartesian orbitals:

                        Set   Shell   Orbital            Exponent    Coefficient

                          1       1    1s                1.909000       0.002524
                                                         0.627000      -0.000420
                                                         0.287300       0.000125
                                                         0.117200      -0.000018

                          1       2    2s                1.909000       0.499763
                                                         0.627000       0.019555
                                                         0.287300      -0.002042
                                                         0.117200       0.000275

                          1       3    3s                1.909000       0.000000
                                                         0.627000       0.502182
                                                         0.287300       0.000000
                                                         0.117200       0.000000

                          1       4    4s                1.909000       0.000000
                                                         0.627000       0.000000
                                                         0.287300       0.279680
                                                         0.117200       0.000000

                          1       5    5s                1.909000      -0.385618
                                                         0.627000       0.132474
                                                         0.287300       0.186505
                                                         0.117200       0.041179

                          1       6    6s                1.909000       0.000000
                                                         0.627000       0.000000
                                                         0.287300       0.000000
                                                         0.117200       0.142760

                          2       1    1s                0.042800       0.067065

                          3       1    1px               3.541000       2.621971
                                                         1.591000       0.435360
                                                         0.620500       0.011900
                                                         0.242000       0.000016
                                                         0.090140       0.000029
                          3       1    1py               3.541000       2.621971
                                                         1.591000       0.435360
                                                         0.620500       0.011900
                                                         0.242000       0.000016
                                                         0.090140       0.000029
                          3       1    1pz               3.541000       2.621971
                                                         1.591000       0.435360
                                                         0.620500       0.011900
                                                         0.242000       0.000016
                                                         0.090140       0.000029

                          3       2    2px               3.541000       0.000000
                                                         1.591000       0.000000
                                                         0.620500       0.784996
                                                         0.242000       0.000000
                                                         0.090140       0.000000
                          3       2    2py               3.541000       0.000000
                                                         1.591000       0.000000
                                                         0.620500       0.784996
                                                         0.242000       0.000000
                                                         0.090140       0.000000
                          3       2    2pz               3.541000       0.000000
                                                         1.591000       0.000000
                                                         0.620500       0.784996
                                                         0.242000       0.000000
                                                         0.090140       0.000000

                          3       3    3px               3.541000      -0.818282
                                                         1.591000       0.023514
                                                         0.620500       0.281689
                                                         0.242000       0.127217
                                                         0.090140       0.017521
                          3       3    3py               3.541000      -0.818282
                                                         1.591000       0.023514
                                                         0.620500       0.281689
                                                         0.242000       0.127217
                                                         0.090140       0.017521
                          3       3    3pz               3.541000      -0.818282
                                                         1.591000       0.023514
                                                         0.620500       0.281689
                                                         0.242000       0.127217
                                                         0.090140       0.017521

                          3       4    4px               3.541000       0.000000
                                                         1.591000       0.000000
                                                         0.620500       0.000000
                                                         0.242000       0.241941
                                                         0.090140       0.000000
                          3       4    4py               3.541000       0.000000
                                                         1.591000       0.000000
                                                         0.620500       0.000000
                                                         0.242000       0.241941
                                                         0.090140       0.000000
                          3       4    4pz               3.541000       0.000000
                                                         1.591000       0.000000
                                                         0.620500       0.000000
                                                         0.242000       0.241941
                                                         0.090140       0.000000

                          3       5    5px               3.541000       0.000000
                                                         1.591000       0.000000
                                                         0.620500       0.000000
                                                         0.242000       0.000000
                                                         0.090140       0.070402
                          3       5    5py               3.541000       0.000000
                                                         1.591000       0.000000
                                                         0.620500       0.000000
                                                         0.242000       0.000000
                                                         0.090140       0.070402
                          3       5    5pz               3.541000       0.000000
                                                         1.591000       0.000000
                                                         0.620500       0.000000
                                                         0.242000       0.000000
                                                         0.090140       0.070402

                          4       1    1px               0.031700       0.019066
                          4       1    1py               0.031700       0.019066
                          4       1    1pz               0.031700       0.019066

                          5       1    1dx2              1.250000       2.432215
                                                         0.504000       0.000000
                                                         0.203000       0.000000
                          5       1    1dxy              1.250000       4.212720
                                                         0.504000       0.000000
                                                         0.203000       0.000000
                          5       1    1dxz              1.250000       4.212720
                                                         0.504000       0.000000
                                                         0.203000       0.000000
                          5       1    1dy2              1.250000       2.432215
                                                         0.504000       0.000000
                                                         0.203000       0.000000
                          5       1    1dyz              1.250000       4.212720
                                                         0.504000       0.000000
                                                         0.203000       0.000000
                          5       1    1dz2              1.250000       2.432215
                                                         0.504000       0.000000
                                                         0.203000       0.000000

                          5       2    2dx2              1.250000       0.000000
                                                         0.504000       0.496207
                                                         0.203000       0.000000
                          5       2    2dxy              1.250000       0.000000
                                                         0.504000       0.859456
                                                         0.203000       0.000000
                          5       2    2dxz              1.250000       0.000000
                                                         0.504000       0.859456
                                                         0.203000       0.000000
                          5       2    2dy2              1.250000       0.000000
                                                         0.504000       0.496207
                                                         0.203000       0.000000
                          5       2    2dyz              1.250000       0.000000
                                                         0.504000       0.859456
                                                         0.203000       0.000000
                          5       2    2dz2              1.250000       0.000000
[...]
 flops    46 x     9 x    46            172690992       0.0%    100.0%      0.0%
 flops inhomo. stacks                           0       0.0%      0.0%      0.0%
 flops total                       867.998008E+06       0.0%    100.0%      0.0%
 flops max/rank                    461.170628E+06       0.0%    100.0%      0.0%
 matmuls inhomo. stacks                         0       0.0%      0.0%      0.0%
 matmuls total                              19083       0.0%    100.0%      0.0%
 number of processed stacks                 17883       0.0%    100.0%      0.0%
 average stack size                                     0.0       1.1       0.0
 marketing flops                   944.956032E+06
 -------------------------------------------------------------------------------
 # multiplications                           1810
 max memory usage/rank               1.771659E+09
 # max total images/rank                        2
 # max 3D layers                                1
 # MPI messages exchanged                 6718720
 MPI messages size (bytes):
  total size                         4.088652E+09
  min size                           0.000000E+00
  max size                          87.360000E+03
  average size                     608.546265E+00
 MPI breakdown and total messages size (bytes):
             size <=      128             6557493                        0
       128 < size <=     8192               62047                238692232
      8192 < size <=    32768               53505               1063792240
     32768 < size <=   131072               45675               2786167680
    131072 < size <=  4194304                   0                        0
   4194304 < size <= 16777216                   0                        0
  16777216 < size                               0                        0
 -------------------------------------------------------------------------------

 *** WARNING in dbcsr_mm.F:291 :: Using a non-square number of MPI ranks ***
 *** might lead to poor performance. Used ranks: 128 Suggested: 121 256  ***

 -------------------------------------------------------------------------------
 -                                                                             -
 -                      DBCSR MESSAGE PASSING PERFORMANCE                      -
 -                                                                             -
 -------------------------------------------------------------------------------
 ROUTINE             CALLS      AVE VOLUME [Bytes]
 MP_Bcast               24                     12.
 MP_Allreduce        10045                      8.
 MP_Alltoall         28730                  39029.
 MP_ISend           112986                   2439.
 MP_IRecv           112190                   1754.
 -------------------------------------------------------------------------------

 -------------------------------------------------------------------------------
 -                                                                             -
 -                                DBM STATISTICS                               -
 -                                                                             -
 -------------------------------------------------------------------------------
    M  x    N  x    K                                          COUNT     PERCENT
 -------------------------------------------------------------------------------

 -------------------------------------------------------------------------------
 -                                                                             -
 -                                GRID STATISTICS                              -
 -                                                                             -
 -------------------------------------------------------------------------------
 LP    KERNEL             BACKEND                              COUNT     PERCENT
 2     collocate ortho    CPU                                  56440       9.44%
 3     collocate ortho    CPU                                  55760       9.33%
 2     integrate ortho    CPU                                  55444       9.28%
 3     integrate ortho    CPU                                  54776       9.16%
 1     collocate ortho    CPU                                  47600       7.96%
 1     integrate ortho    CPU                                  46760       7.82%
 4     collocate ortho    CPU                                  40630       6.80%
 4     integrate ortho    CPU                                  39913       6.68%
 2     collocate general  CPU                                  38016       6.36%
 2     integrate general  CPU                                  37248       6.23%
 0     collocate ortho    CPU                                  25500       4.27%
 0     integrate ortho    CPU                                  25050       4.19%
 5     collocate ortho    CPU                                  22780       3.81%
 5     integrate ortho    CPU                                  22378       3.74%
 6     collocate ortho    CPU                                  10370       1.73%
 6     integrate ortho    CPU                                  10187       1.70%
 7     collocate ortho    CPU                                   3400       0.57%
 7     integrate ortho    CPU                                   3340       0.56%
 8     collocate ortho    CPU                                    680       0.11%
 8     integrate ortho    CPU                                    668       0.11%
 0     collocate general  CPU                                    384       0.06%
 0     integrate general  CPU                                    384       0.06%
 -------------------------------------------------------------------------------

 MEMORY| Estimated peak process memory [MiB]                                1690

 -------------------------------------------------------------------------------
 ----                             MULTIGRID INFO                            ----
 -------------------------------------------------------------------------------
 count for grid        1:       21851028          cutoff [a.u.]          600.00
 count for grid        2:        3363770          cutoff [a.u.]          200.00
 count for grid        3:        2376257          cutoff [a.u.]           66.67
 count for grid        4:        1145262          cutoff [a.u.]           22.22
 count for grid        5:         165839          cutoff [a.u.]            7.41
 total gridlevel count  :       28902156

 -------------------------------------------------------------------------------
 -                                                                             -
 -                         MESSAGE PASSING PERFORMANCE                         -
 -                                                                             -
 -------------------------------------------------------------------------------

 ROUTINE             CALLS      AVE VOLUME [Bytes]
 MP_Group                6
 MP_Bcast             1569                 273727.
 MP_Allreduce         8390                  28253.
 MP_Sync              1625
 MP_Alltoall          4472               19131099.
 MP_SendRecv         64770                 127152.
 MP_ISendRecv       141859                  88061.
 MP_Wait            182100
 MP_comm_split          82
 MP_ISend            33810                 829597.
 MP_IRecv            36416                 770146.
 -------------------------------------------------------------------------------


 -------------------------------------------------------------------------------
 -                                                                             -
 -                           R E F E R E N C E S                               -
 -                                                                             -
 -------------------------------------------------------------------------------
 
 CP2K version 2024.1 (Development Version), the CP2K developers group (2024).
 CP2K is freely available from https://www.cp2k.org/ .

 Kuehne,Thomas D.; Iannuzzi,Marcella; Del Ben,Mauro;
 Rybkin,Vladimir V.; Seewald,Patrick; Stein,Frederick; Laino,Teodoro;
 Khaliullin,Rustam Z.; Schuett,Ole; Schiffmann,Florian; Golze,Dorothea;
 Wilhelm,Jan; Chulkov,Sergey; Bani-Hashemian,Mohammad Hossein;
 Weber,Valery; Borstnik,Urban; Taillefumier,Mathieu;
 Jakobovits,Alice Shoshana; Lazzaro,Alfio; Pabst,Hans; Mueller,Tiziano;
 Schade,Robert; Guidon,Manuel; Andermatt,Samuel; Holmberg,Nico;
 Schenter,Gregory K.; Hehn,Anna; Bussy,Augustin; Belleflamme,Fabian;
 Tabacchi,Gloria; Gloess,Andreas; Lass,Michael; Bethune,Iain;
 Mundy,Christopher J.; Plessl,Christian; Watkins,Matt;
 VandeVondele,Joost; Krack,Matthias; Hutter,Juerg. 
 The Journal of Chemical Physics, 152 (19), (2020). 
 CP2K: An electronic structure and molecular dynamics software package -
 Quickstep: Efficient and accurate electronic structure calculations.
 https://doi.org/10.1063/5.0007045

 Schuett, Ole; Messmer, Peter; Hutter, Juerg; VandeVondele, Joost. 
 Electronic Structure Calculations on Graphics Processing Units, John
 Wiley & Sons, Ltd, 173-190 (2016). 
 GPU-Accelerated Sparse Matrix-Matrix Multiplication for
 Linear Scaling Density Functional Theory.
 https://doi.org/10.1002/9781118670712.ch8

 Heinecke, A; Henry, G; Hutchinson, M; Pabst, H. 
 Proceedings of Intl. Supercomputing Conference, 981-991 (2016). 
 LIBXSMM: Accelerating Small Matrix Multiplications
 by Runtime Code Generation.
 https://doi.org/10.1109/SC.2016.83

 Borstnik, U; VandeVondele, J; Weber, V; Hutter, J. 
 PARALLEL COMPUTING, 40 (5-6), 47-58 (2014). 
 Sparse matrix multiplication: The distributed block-compressed sparse
 row library.
 https://doi.org/10.1016/j.parco.2014.03.012

 Hutter, J; Iannuzzi, M; Schiffmann, F; VandeVondele, J. 
 WIREs Comput Mol Sci., 4 (1), 15-25 (2014). 
 CP2K: atomistic simulations of condensed matter systems.
 https://doi.org/10.1002/wcms.1159

 Guidon, M; Hutter, J; VandeVondele, J. 
 JOURNAL OF CHEMICAL THEORY AND COMPUTATION, 5 (11), 3010-3021 (2009). 
 Robust Periodic Hartree-Fock Exchange for Large-Scale Simulations Using
 Gaussian Basis Sets.
 https://doi.org/10.1021/ct900494g

 Guidon, M; Schiffmann, F; Hutter, J; VandeVondele, J. 
 JOURNAL OF CHEMICAL PHYSICS, 128 (21), 214104 (2008). 
 Ab initio molecular dynamics using hybrid density functionals.
 https://doi.org/10.1063/1.2931945

 Frigo, M; Johnson, SG. 
 PROCEEDINGS OF THE IEEE, 93 (2), 216-231 (2005). 
 The design and implementation of FFTW3.
 https://doi.org/10.1109/JPROC.2004.840301

 Iannuzzi, M; Chassaing, T; Wallman, T; Hutter, J. 
 CHIMIA, 59 (7-8), 499-503 (2005). 
 Ground and excited state density functional calculations with the
 Gaussian and augmented-plane-wave method.
 https://doi.org/10.2533/000942905777676164

 VandeVondele, J; Hutter, J. 
 JOURNAL OF CHEMICAL PHYSICS, 118 (10), 4365-4369 (2003). 
 An efficient orbital transformation method for electronic structure
 calculations.
 https://doi.org/10.1063/1.1543154

 Martin,Richard L.. 
 The Journal of Chemical Physics, 118 (11), 4775-4777 (2003). 
 Natural transition orbitals.
 https://doi.org/10.1063/1.1558471

 Lippert, G; Hutter, J; Parrinello, M. 
 THEORETICAL CHEMISTRY ACCOUNTS, 103 (2), 124-140 (1999). 
 The Gaussian and augmented-plane-wave density functional method for ab
 initio molecular dynamics simulations.
 https://doi.org/10.1007/s002140050523

 Krack, M; Parrinello, M. 
 PHYSICAL CHEMISTRY CHEMICAL PHYSICS, 2 (10), 2105-2112 (2000). 
 All-electron ab-initio molecular dynamics.
 https://doi.org/10.1039/b001167n

 Martyna, GJ; Tuckerman, ME. 
 JOURNAL OF CHEMICAL PHYSICS, 110 (6), 2810-2821 (1999). 
 A reciprocal space based method for treating long range interactions in
 ab initio and force-field-based calculations in clusters.
 https://doi.org/10.1063/1.477923

 Perdew, JP; Burke, K; Ernzerhof, M. 
 PHYSICAL REVIEW LETTERS, 77 (18), 3865-3868 (1996). 
 Generalized gradient approximation made simple.
 https://doi.org/10.1103/PhysRevLett.77.3865


 -------------------------------------------------------------------------------
 -                                                                             -
 -                                T I M I N G                                  -
 -                                                                             -
 -------------------------------------------------------------------------------
 SUBROUTINE                       CALLS  ASD         SELF TIME        TOTAL TIME
                                MAXIMUM       AVERAGE  MAXIMUM  AVERAGE  MAXIMUM
 CP2K                                 1  1.0     4.82     4.98 10031.27 10031.32
 qs_energies                          1  2.0     0.03     0.12  9966.78  9966.83
 qs_energies_properties               1  3.0     0.00     0.01  8139.26  8139.31
 tddfpt                               1  4.0     0.02     0.10  8139.26  8139.31
 tddfpt_soc_energies                  1  5.0     0.00     0.08  8100.97  8101.03
 tddfpt_energies                      2  6.0     0.00     0.08  8021.44  8021.52
 tddfpt_davidson_solver               4  7.0     0.03     0.11  7085.45  7085.48
 tddfpt_compute_Aop_evects           14  8.0     0.01     0.05  6329.93  6330.13
 fhxc_kernel                         14  9.0     0.03     0.09  3753.97  3754.20
 mp_waitall_1                    348404 14.3  2600.93  2662.31  2600.93  2662.31
 tddfpt_apply_hfx                    14  9.0     0.01     0.03  2286.37  2286.43
 integrate_four_center              307 10.8     0.19     0.35  1900.61  1903.56
 scf_env_do_scf                       1  3.0     0.00     0.02  1781.78  1781.82
 cp_dbcsr_sm_fm_multiply            883  9.5     0.02     0.05  1718.53  1730.71
 qs_rho_update_rho_low              170  9.2     0.01     0.06  1653.65  1654.37
 tddft_hfx_matrix                   280 10.0     0.02     0.05  1575.49  1578.54
 calculate_rho_elec                 170 10.2     0.87     1.32  1527.46  1529.20
 density_rs2pw                      170 11.2     0.02     0.05  1490.27  1495.33
 scf_env_do_scf_inner_loop           27  4.0     0.02     0.07  1463.15  1463.25
 integrate_v_rspace                 167  9.8     0.01     0.04  1430.73  1437.76
 dbcsr_complete_redistribute       2869 11.5     0.10     0.19  1380.08  1414.60
 potential_pw2rs                    167 10.8     0.06     0.12  1378.74  1387.51
 transfer_rs2pw                     950 12.1     0.01     0.05  1259.70  1270.20
 transfer_pw2rs                     933 11.8     0.01     0.03  1233.06  1239.25
 mp_sendrecv_dv                   64770 14.2  1109.39  1119.71  1109.39  1119.71
 copy_dbcsr_to_fm                   961 10.4     0.01     0.05   999.64  1015.12
 dbcsr_multiply_generic            1810 10.9     0.08     0.12   949.54   983.87
 pw_transfer                       3736 12.1     0.53     0.89   877.45   891.42
 fft_wrap_pw1pw2                   3443 13.2     0.04     0.09   875.58   889.38
 cp_fm_syevd                         82  9.2     0.01     0.04   851.02   852.50
 tddfpt_print_nto_analysis            2  7.0     0.02     0.09   850.73   851.08
 integrate_four_center_getP         307 11.8     0.07     0.10   842.65   843.84
 fft3d_ps                          3443 15.2   102.59   115.85   804.83   818.14
 integrate_four_center_dist_KS      307 11.8     0.07     0.10   797.08   798.64
 cp_fm_redistribute_end              82 10.2   395.31   739.28   403.61   742.64
 qs_ks_update_qs_env                 29  5.0     0.00     0.01   733.68   735.12
 rebuild_ks_matrix                   27  6.0     0.00     0.01   730.45   732.05
 qs_ks_build_kohn_sham_matrix        27  7.0     0.02     0.09   730.45   732.05
 copy_fm_to_dbcsr                  1904 10.6     0.01     0.02   647.51   682.41
 qs_scf_new_mos                      27  5.0     0.00     0.00   673.50   673.94
 qs_scf_loop_do_ot                   27  6.0     0.00     0.00   673.50   673.94
 cp_fm_syevd_base                    82 10.2   333.07   673.24   333.07   673.24
 fft_wrap_pw1pw2_600               2094 14.3    10.01    10.85   650.52   663.56
 cp_fm_geeig                         20  8.0     0.01     0.04   660.49   660.77
 mp_alltoall_d11v                 11923 12.7   619.55   660.30   619.55   660.30
 ot_scf_mini                         27  7.0     0.00     0.03   656.06   656.51
 mp_sync                           1625 12.5   523.02   602.86   523.02   602.86
 mp_alltoall_z22v                  3443 17.2   576.45   600.60   576.45   600.60
 tddfpt_orthonormalize_psi1_psi      16  7.9     0.01     0.04   503.88   507.03
 mp_alltoall_i11v                  9662 12.5   498.57   500.02   498.57   500.02
 transfer_pw2rs_70                  167 12.8     7.80    14.48   442.54   469.64
 transfer_rs2pw_70                  170 13.2     5.20     7.14   437.55   463.90
 mp_sum_l                          7532 11.3   438.38   454.82   438.38   454.82
 tddfpt_apply_xc_analytic           140 10.0     2.14     2.70   433.05   435.87
 ot_mini                             27  8.0     0.02     0.07   409.70   410.21
 transfer_rs2pw_30                  170 13.2     0.58     0.77   377.76   401.76
 transfer_pw2rs_30                  167 12.8     0.50     0.74   376.76   401.10
 cp_dbcsr_sm_fm_multiply_core       883 10.5     0.00     0.02   359.90   390.54
 xc_pw_derive                      1221 11.7     0.04     0.08   376.46   385.14
 yz_to_x                           1281 16.6    11.25    13.54   310.07   331.37
 hfx_ks_matrix                       27  8.0     0.00     0.03   325.14   325.43
 init_scf_loop                        2  4.0     0.01     0.07   317.52   317.58
 transfer_rs2pw_10                  170 13.2     0.16     0.21   300.01   315.25
 mp_sum_dv                         4843 10.4   300.82   308.54   300.82   308.54
 mp_cart_sub                       1930 12.4   304.79   306.30   304.79   306.30
 tddfpt_apply_energy_diff            14  9.0     0.00     0.00   289.59   289.68
 dbcsr_desymmetrize_deep            962 11.4     0.02     0.04   268.69   284.78
 transfer_pw2rs_10                  167 12.8     0.12     0.15   270.82   282.76
 multiply_cannon                   1810 11.9     0.15     0.39   252.61   281.75
 cp_dbcsr_plus_fm_fm_t_native       141 10.0     0.01     0.04   275.83   277.64
 x_to_yz                           1488 15.9    19.25    28.59   263.26   268.78
 mp_sum_d                          4116  9.4   243.53   255.44   243.53   255.44
 xc_calc_2nd_deriv_analytical       420 11.0    54.86    63.33   236.16   237.37
 qs_ot_get_derivative                27  9.0     0.00     0.03   231.89   232.44
 sum_up_and_integrate                27  8.0     0.00     0.02   230.73   231.51
 mp_alltoall_i22                   3862 12.5   204.84   229.94   204.84   229.94
 cp_fm_trace_a1b1t1_aa             3880  9.0     0.01     0.02   222.30   225.44
 integrate_four_center_main         307 11.8     0.04     0.09     7.39   225.26
 integrate_four_center_bin        39296 12.8     7.35   225.23     7.35   225.23
 xc_pw_divergence                   167 11.7     0.01     0.05   206.27   213.97
 mp_sum_dm                         1428 11.1   199.86   206.44   199.86   206.44
 qs_ot_get_p                         29  7.9     0.00     0.02   201.43   201.76
 -------------------------------------------------------------------------------

 The number of warnings for this run is : 1
 
 -------------------------------------------------------------------------------
  **** **** ******  **  PROGRAM ENDED AT                 2024-02-02 12:36:03.156
 ***** ** ***  *** **   PROGRAM RAN ON                               nesh-clk386
 **    ****   ******    PROGRAM RAN BY                                  suphc355
 ***** **    ** ** **   PROGRAM PROCESS ID                               3477436
  **** **  *******  **  PROGRAM STOPPED IN /gxfs_work/cau/suphc355/homologes/H2X
                                           /AE/S
