
 *******************************************************************************
 *   ___                                                                       *
 *  /   \                                                                      *
 * [ABORT]                                                                     *
 *  \___/     A string type object was expected, found end of line, File: '',  *
 *    |                            Line: 5379, Column: 1                       *
 *  O/|                                                                        *
 * /| |                                                                        *
 * / \                                          input/cp_parser_methods.F:1223 *
 *******************************************************************************


 ===== Routine Calling Stack ===== 

            6 section_vals_parse
            5 section_vals_parse
            4 section_vals_parse
            3 section_vals_parse
            2 section_vals_parse
            1 read_input
 DBCSR| CPU Multiplication driver                                           XSMM (U)
 DBCSR| Multrec recursion limit                                              512 (U)
 DBCSR| Multiplication stack size                                           1000 (D)
 DBCSR| Maximum elements for images                                    UNLIMITED (U)
 DBCSR| Multiplicative factor virtual images                                   1 (U)
 DBCSR| Use multiplication densification                                       T (D)
 DBCSR| Multiplication size stacks                                             3 (U)
 DBCSR| Use memory pool for CPU allocation                                     F (U)
 DBCSR| Number of 3D layers                                               SINGLE (U)
 DBCSR| Use MPI memory allocation                                              F (U)
 DBCSR| Use RMA algorithm                                                      F (U)
 DBCSR| Use Communication thread                                               T (U)
 DBCSR| Communication thread load                                             87 (D)
 DBCSR| MPI: My process id                                                     0
 DBCSR| MPI: Number of processes                                             128
 DBCSR| OMP: Current number of threads                                         1
 DBCSR| OMP: Max number of threads                                             1
 DBCSR| Split modifier for TAS multiplication algorithm                  1.0E+00 (U)


  **** **** ******  **  PROGRAM STARTED AT               2024-02-07 15:54:35.291
 ***** ** ***  *** **   PROGRAM STARTED ON                           nesh-srp304
 **    ****   ******    PROGRAM STARTED BY                              suphc355
 ***** **    ** ** **   PROGRAM PROCESS ID                                321580
  **** **  *******  **  PROGRAM STARTED IN /gxfs_work/cau/suphc355/homologes/H2X
                                           /AE/S

 CP2K| version string:                 CP2K version 2024.1 (Development Version)
 CP2K| source code revision number:                                  git:b6f9133
 CP2K| cp2kflags: omp libint fftw3 libxc libgrpp parallel mpi_f08 scalapack cosm
 CP2K|            a xsmm spglib mkl
 CP2K| is freely available from                            https://www.cp2k.org/
 CP2K| Program compiled at                          Fr 26. Jan 09:14:30 CET 2024
 CP2K| Program compiled on                                           nesh-login3
 CP2K| Program compiled for                                                local
 CP2K| Data directory path            /gxfs_home/cau/suphc355/software/cp2k/data
 CP2K| Input file name                                                AE_vel.inp
 
 GLOBAL| Force Environment number                                              1
 GLOBAL| Basis set file name                                 ../../../basis_zora
 GLOBAL| Potential file name                                           POTENTIAL
 GLOBAL| MM Potential file name                                     MM_POTENTIAL
 GLOBAL| Coordinate file name                                            opt.xyz
 GLOBAL| Method name                                                        CP2K
 GLOBAL| Project name                                                     H2S_AE
 GLOBAL| Run type                                                         ENERGY
 GLOBAL| FFT library                                                       FFTW3
 GLOBAL| Diagonalization library                                       ScaLAPACK
 GLOBAL| DGEMM library                                                      BLAS
 GLOBAL| Orthonormality check for eigenvectors                          DISABLED
 GLOBAL| Matrix multiplication library                                     COSMA
 GLOBAL| All-to-all communication in single precision                          F
 GLOBAL| FFTs using library dependent lengths                                  F
 GLOBAL| Grid backend                                                       AUTO
 GLOBAL| Global print level                                               MEDIUM
 GLOBAL| MPI I/O enabled                                                       T
 GLOBAL| Total number of message passing processes                           128
 GLOBAL| Number of threads for this process                                    1
 GLOBAL| This output is from process                                           0
 GLOBAL| Stack size for threads created by OpenMP (OMP_STACKSIZE)        default
 GLOBAL| CPU model name                              Intel(R) Xeon(R) Gold 6426Y
 GLOBAL| CPUID                                                              1003

 MEMORY| system memory details [Kb]
 MEMORY|                        rank 0           min           max       average
 MEMORY| MemTotal            263786136     263786136     263786136     263786136
 MEMORY| MemFree             242598128     242437156     242598632     242529172
 MEMORY| Buffers                946764        946764        978980        955757
 MEMORY| Cached                 988316        954656        999116        983599
 MEMORY| Slab                   687740        687740        728556        703406
 MEMORY| SReclaimable           192020        192020        210768        200620
 MEMORY| MemLikelyFree       244725228     244581560     244725228     244669148


 *** Fundamental physical constants (SI units) ***

 *** Literature: B. J. Mohr and B. N. Taylor,
 ***             CODATA recommended values of the fundamental physical
 ***             constants: 2006, Web Version 5.1
 ***             http://physics.nist.gov/constants

 Speed of light in vacuum [m/s]                             2.99792458000000E+08
 Magnetic constant or permeability of vacuum [N/A**2]       1.25663706143592E-06
 Electric constant or permittivity of vacuum [F/m]          8.85418781762039E-12
 Planck constant (h) [J*s]                                  6.62606896000000E-34
 Planck constant (h-bar) [J*s]                              1.05457162825177E-34
 Elementary charge [C]                                      1.60217648700000E-19
 Electron mass [kg]                                         9.10938215000000E-31
 Electron g factor [ ]                                     -2.00231930436220E+00
 Proton mass [kg]                                           1.67262163700000E-27
 Fine-structure constant                                    7.29735253760000E-03
 Rydberg constant [1/m]                                     1.09737315685270E+07
 Avogadro constant [1/mol]                                  6.02214179000000E+23
 Boltzmann constant [J/K]                                   1.38065040000000E-23
 Atomic mass unit [kg]                                      1.66053878200000E-27
 Bohr radius [m]                                            5.29177208590000E-11

 *** Conversion factors ***

 [u] -> [a.u.]                                              1.82288848426455E+03
 [Angstrom] -> [Bohr] = [a.u.]                              1.88972613288564E+00
 [a.u.] = [Bohr] -> [Angstrom]                              5.29177208590000E-01
 [a.u.] -> [s]                                              2.41888432650478E-17
 [a.u.] -> [fs]                                             2.41888432650478E-02
 [a.u.] -> [J]                                              4.35974393937059E-18
 [a.u.] -> [N]                                              8.23872205491840E-08
 [a.u.] -> [K]                                              3.15774647902944E+05
 [a.u.] -> [kJ/mol]                                         2.62549961709828E+03
 [a.u.] -> [kcal/mol]                                       6.27509468713739E+02
 [a.u.] -> [Pa]                                             2.94210107994716E+13
 [a.u.] -> [bar]                                            2.94210107994716E+08
 [a.u.] -> [atm]                                            2.90362800883016E+08
 [a.u.] -> [eV]                                             2.72113838565563E+01
 [a.u.] -> [Hz]                                             6.57968392072181E+15
 [a.u.] -> [1/cm] (wave numbers)                            2.19474631370540E+05
 [a.u./Bohr**2] -> [1/cm]                                   5.14048714338585E+03
 

 CELL_TOP| Volume [angstrom^3]:                                      8000.000000
 CELL_TOP| Vector a [angstrom    20.000     0.000     0.000   |a| =    20.000000
 CELL_TOP| Vector b [angstrom     0.000    20.000     0.000   |b| =    20.000000
 CELL_TOP| Vector c [angstrom     0.000     0.000    20.000   |c| =    20.000000
 CELL_TOP| Angle (b,c), alpha [degree]:                                90.000000
 CELL_TOP| Angle (a,c), beta  [degree]:                                90.000000
 CELL_TOP| Angle (a,b), gamma [degree]:                                90.000000
 CELL_TOP| Numerically orthorhombic:                                         YES
 CELL_TOP| Periodicity                                                      NONE
 
 GENERATE|  Preliminary Number of Bonds generated:                             0
 GENERATE|  Achieved consistency in connectivity generation.

 CELL| Volume [angstrom^3]:                                          8000.000000
 CELL| Vector a [angstrom]:      20.000     0.000     0.000   |a| =    20.000000
 CELL| Vector b [angstrom]:       0.000    20.000     0.000   |b| =    20.000000
 CELL| Vector c [angstrom]:       0.000     0.000    20.000   |c| =    20.000000
 CELL| Angle (b,c), alpha [degree]:                                    90.000000
 CELL| Angle (a,c), beta  [degree]:                                    90.000000
 CELL| Angle (a,b), gamma [degree]:                                    90.000000
 CELL| Numerically orthorhombic:                                             YES
 CELL| Periodicity                                                          NONE

 CELL_REF| Volume [angstrom^3]:                                      8000.000000
 CELL_REF| Vector a [angstrom    20.000     0.000     0.000   |a| =    20.000000
 CELL_REF| Vector b [angstrom     0.000    20.000     0.000   |b| =    20.000000
 CELL_REF| Vector c [angstrom     0.000     0.000    20.000   |c| =    20.000000
 CELL_REF| Angle (b,c), alpha [degree]:                                90.000000
 CELL_REF| Angle (a,c), beta  [degree]:                                90.000000
 CELL_REF| Angle (a,b), gamma [degree]:                                90.000000
 CELL_REF| Numerically orthorhombic:                                         YES
 CELL_REF| Periodicity                                                      NONE

 *******************************************************************************
 *******************************************************************************
 **                                                                           **
 **     #####                         ##              ##                      **
 **    ##   ##            ##          ##              ##                      **
 **   ##     ##                       ##            ######                    **
 **   ##     ##  ##   ##  ##   #####  ##  ##   ####   ##    #####    #####    **
 **   ##     ##  ##   ##  ##  ##      ## ##   ##      ##   ##   ##  ##   ##   **
 **   ##  ## ##  ##   ##  ##  ##      ####     ###    ##   ######   ######    **
 **    ##  ###   ##   ##  ##  ##      ## ##      ##   ##   ##       ##        **
 **     #######   #####   ##   #####  ##  ##  ####    ##    #####   ##        **
 **           ##                                                    ##        **
 **                                                                           **
 **                                                ... make the atoms dance   **
 **                                                                           **
 **            Copyright (C) by CP2K developers group (2000-2024)             **
 **                      J. Chem. Phys. 152, 194103 (2020)                    **
 **                                                                           **
 *******************************************************************************

 DFT| Spin restricted Kohn-Sham (RKS) calculation                            RKS
 DFT| Multiplicity                                                             1
 DFT| Number of spin states                                                    1
 DFT| Charge                                                                   0
 DFT| Self-interaction correction (SIC)                                       NO
 DFT| Cutoffs: density                                              1.000000E-10
 DFT|          gradient                                             1.000000E-10
 DFT|          tau                                                  1.000000E-10
 DFT|          cutoff_smoothing_range                               0.000000E+00
 DFT| XC density smoothing                                                  NONE
 DFT| XC derivatives                                                          PW

 FUNCTIONAL| PBE:
 FUNCTIONAL| J.P.Perdew, K.Burke, M.Ernzerhof, Phys. Rev. Letter, vol. 77, n 18,
 FUNCTIONAL|  pp. 3865-3868, (1996)sx=0.750sc=1.000{spin unpolarized}           


 QS| Method:                                                                GAPW
 QS| Density plane wave grid type                        NON-SPHERICAL FULLSPACE
 QS| Number of grid levels:                                                    5
 QS| Density cutoff [a.u.]:                                                600.0
 QS| Multi grid cutoff [a.u.]: 1) grid level                               600.0
 QS|                           2) grid level                               200.0
 QS|                           3) grid level                                66.7
 QS|                           4) grid level                                22.2
 QS|                           5) grid level                                 7.4
 QS| Grid level progression factor:                                          3.0
 QS| Relative density cutoff [a.u.]:                                        40.0
 QS| Interaction thresholds: eps_pgf_orb:                                1.0E-30
 QS|                         eps_filter_matrix:                          0.0E+00
 QS|                         eps_core_charge:                            1.0E-17
 QS|                         eps_rho_gspace:                             1.0E-15
 QS|                         eps_rho_rspace:                             1.0E-15
 QS|                         eps_gvg_rspace:                             3.2E-08
 QS|                         eps_ppl:                                    1.0E-02
 QS|                         eps_ppnl:                                   3.2E-10
 QS| GAPW|      One center basis from orbital basis primitives
 QS| GAPW|                   eps_fit:                                    1.0E-04
 QS| GAPW|                   eps_iso:                                    1.0E-12
 QS| GAPW|                   eps_svd:                                    1.0E-08
 QS| GAPW|                   eps_cpc:                                    1.0E-15
 QS| GAPW|   atom-r-grid: quadrature:                                     GC_LOG
 QS| GAPW|      atom-s-grid:  max l :                                          6
 QS| GAPW|      max_l_rho0 :                                                   2


 ATOMIC KIND INFORMATION

  1. Atomic kind: H                                     Number of atoms:       2

     Orbital Basis Set                                                  TZP-ZORA

       Number of orbital shell sets:                                           6
       Number of orbital shells:                                               6
       Number of primitive Cartesian functions:                                8
       Number of Cartesian basis functions:                                   15
       Number of spherical basis functions:                                   14
       Norm type:                                                              2

       Normalised Cartesian orbitals:

                        Set   Shell   Orbital            Exponent    Coefficient

                          1       1    1s               34.877584       0.254499
                                                         5.233973       0.449285
                                                         1.185033       0.695456

                          2       1    1s                0.328339       0.309138

                          3       1    1s                0.110319       0.136426

                          4       1    1px               0.718844       0.943482
                          4       1    1py               0.718844       0.943482
                          4       1    1pz               0.718844       0.943482

                          5       1    1px               0.350000       0.383729
                          5       1    1py               0.350000       0.383729
                          5       1    1pz               0.350000       0.383729

                          6       1    1dx2              1.075060       1.868171
                          6       1    1dxy              1.075060       3.235768
                          6       1    1dxz              1.075060       3.235768
                          6       1    1dy2              1.075060       1.868171
                          6       1    1dyz              1.075060       3.235768
                          6       1    1dz2              1.075060       1.868171

       Atomic covalent radius [Angstrom]:                                  0.320

       Atomic van der Waals radius [Angstrom]:                             1.090

     The atoms of this atomic kind are PAW atoms (GAPW):
       Hard Gaussian function radius:                                      1.200
       Rho0 radius:                                                        1.200
       Maximum GTO radius used for PAW projector construction:            24.566

     GAPW Soft Basis Set                                           TZP-ZORA_soft

       Number of orbital shell sets:                                           6
       Number of orbital shells:                                               6
       Number of primitive Cartesian functions:                                7
       Number of Cartesian basis functions:                                   15
       Number of spherical basis functions:                                   14
       Norm type:                                                              2

       Normalised Cartesian orbitals:

                        Set   Shell   Orbital            Exponent    Coefficient

                          1       1    1s                5.233973       0.449285
                                                         1.185033       0.695456

                          2       1    1s                0.328339       0.309138

                          3       1    1s                0.110319       0.136426

                          4       1    1px               0.718844       0.943482
                          4       1    1py               0.718844       0.943482
                          4       1    1pz               0.718844       0.943482

                          5       1    1px               0.350000       0.383729
                          5       1    1py               0.350000       0.383729
                          5       1    1pz               0.350000       0.383729

                          6       1    1dx2              1.075060       1.868171
                          6       1    1dxy              1.075060       3.235768
                          6       1    1dxz              1.075060       3.235768
                          6       1    1dy2              1.075060       1.868171
                          6       1    1dyz              1.075060       3.235768
                          6       1    1dz2              1.075060       1.868171

     AE Potential information for                                            ALL

       Description:                                       All-electron potential
                                          Krack, Parrinello, PCCP 2, 2105 (2000)

       Gaussian exponent of the core charge distribution:              12.500000
       Electronic configuration (s p d ...):                           1   0   0

  2. Atomic kind: S                                     Number of atoms:       1

     Orbital Basis Set                                                  TZP-ZORA

       Number of orbital shell sets:                                          16
       Number of orbital shells:                                              16
       Number of primitive Cartesian functions:                               26
       Number of Cartesian basis functions:                                   45
       Number of spherical basis functions:                                   40
       Norm type:                                                              2

       Normalised Cartesian orbitals:

                        Set   Shell   Orbital            Exponent    Coefficient

                          1       1    1s           131334.981146      10.441701
                                                     20181.900419      16.179351
                                                      4835.704631      25.099201
                                                      1439.738154      38.502832
                                                       476.154263      55.742865

                          2       1    1s              168.682520      33.358972

                          3       1    1s               62.922540      15.922629

                          4       1    1s               24.333300       7.808378

                          5       1    1s                6.865738       3.022912

                          6       1    1s                3.374956      -1.169784
                                                         1.517499      -0.357770

                          7       1    1s                0.446515       0.389302

                          8       1    1s                0.161742       0.181772

                          9       1    1px             754.152359      10.271879
                                                       193.633447      12.718958
                                                        64.141062      15.240188
                                                        23.757144      14.650983
                                                         9.452343       9.664480
                                                         3.939968       3.799949
                          9       1    1py             754.152359      10.271879
                                                       193.633447      12.718958
                                                        64.141062      15.240188
                                                        23.757144      14.650983
                                                         9.452343       9.664480
                                                         3.939968       3.799949
                          9       1    1pz             754.152359      10.271879
                                                       193.633447      12.718958
                                                        64.141062      15.240188
                                                        23.757144      14.650983
                                                         9.452343       9.664480
                                                         3.939968       3.799949

                         10       1    1px               1.720806       2.809343
                         10       1    1py               1.720806       2.809343
                         10       1    1pz               1.720806       2.809343

                         11       1    1px               0.770763       1.029417
                         11       1    1py               0.770763       1.029417
                         11       1    1pz               0.770763       1.029417

                         12       1    1px               0.287374       0.299916
                         12       1    1py               0.287374       0.299916
                         12       1    1pz               0.287374       0.299916

                         13       1    1px               0.101132       0.081293
                         13       1    1py               0.101132       0.081293
                         13       1    1pz               0.101132       0.081293

                         14       1    1dx2              0.781337       1.068751
                         14       1    1dxy              0.781337       1.851131
                         14       1    1dxz              0.781337       1.851131
                         14       1    1dy2              0.781337       1.068751
                         14       1    1dyz              0.781337       1.851131
                         14       1    1dz2              0.781337       1.068751

                         15       1    1dx2              0.264839       0.160927
                         15       1    1dxy              0.264839       0.278733
                         15       1    1dxz              0.264839       0.278733
                         15       1    1dy2              0.264839       0.160927
                         15       1    1dyz              0.264839       0.278733
                         15       1    1dz2              0.264839       0.160927

                         16       1    1fx3              0.583790       0.438563
                         16       1    1fx2y             0.583790       0.980657
                         16       1    1fx2z             0.583790       0.980657
                         16       1    1fxy2             0.583790       0.980657
                         16       1    1fxyz             0.583790       1.698547
                         16       1    1fxz2             0.583790       0.980657
                         16       1    1fy3              0.583790       0.438563
                         16       1    1fy2z             0.583790       0.980657
                         16       1    1fyz2             0.583790       0.980657
                         16       1    1fz3              0.583790       0.438563

       Atomic covalent radius [Angstrom]:                                  1.020

       Atomic van der Waals radius [Angstrom]:                             1.800

     The atoms of this atomic kind are PAW atoms (GAPW):
       Hard Gaussian function radius:                                      1.512
       Rho0 radius:                                                        1.512
       Maximum GTO radius used for PAW projector construction:            24.566

     GAPW Soft Basis Set                                           TZP-ZORA_soft

       Number of orbital shell sets:                                          16
       Number of orbital shells:                                              16
       Number of primitive Cartesian functions:                               12
       Number of Cartesian basis functions:                                   45
       Number of spherical basis functions:                                   40
       Norm type:                                                              2

       Normalised Cartesian orbitals:

                        Set   Shell   Orbital            Exponent    Coefficient

                          1       1    1s         

                          2       1    1s         

                          3       1    1s         

                          4       1    1s         

                          5       1    1s         

                          6       1    1s                3.374956      -1.169784
                                                         1.517499      -0.357770

                          7       1    1s                0.446515       0.389302

                          8       1    1s                0.161742       0.181772

                          9       1    1px               3.939968       3.799949
                          9       1    1py               3.939968       3.799949
                          9       1    1pz               3.939968       3.799949

                         10       1    1px               1.720806       2.809343
                         10       1    1py               1.720806       2.809343
                         10       1    1pz               1.720806       2.809343

                         11       1    1px               0.770763       1.029417
                         11       1    1py               0.770763       1.029417
                         11       1    1pz               0.770763       1.029417

                         12       1    1px               0.287374       0.299916
                         12       1    1py               0.287374       0.299916
                         12       1    1pz               0.287374       0.299916

                         13       1    1px               0.101132       0.081293
                         13       1    1py               0.101132       0.081293
                         13       1    1pz               0.101132       0.081293

                         14       1    1dx2              0.781337       1.068751
                         14       1    1dxy              0.781337       1.851131
                         14       1    1dxz              0.781337       1.851131
                         14       1    1dy2              0.781337       1.068751
                         14       1    1dyz              0.781337       1.851131
                         14       1    1dz2              0.781337       1.068751

                         15       1    1dx2              0.264839       0.160927
                         15       1    1dxy              0.264839       0.278733
                         15       1    1dxz              0.264839       0.278733
                         15       1    1dy2              0.264839       0.160927
                         15       1    1dyz              0.264839       0.278733
                         15       1    1dz2              0.264839       0.160927

                         16       1    1fx3              0.583790       0.438563
                         16       1    1fx2y             0.583790       0.980657
                         16       1    1fx2z             0.583790       0.980657
                         16       1    1fxy2             0.583790       0.980657
                         16       1    1fxyz             0.583790       1.698547
                         16       1    1fxz2             0.583790       0.980657
                         16       1    1fy3              0.583790       0.438563
                         16       1    1fy2z             0.583790       0.980657
                         16       1    1fyz2             0.583790       0.980657
                         16       1    1fz3              0.583790       0.438563

     AE Potential information for                                            ALL

       Description:                                       All-electron potential
                                          Krack, Parrinello, PCCP 2, 2105 (2000)

       Gaussian exponent of the core charge distribution:               2.834467
       Electronic configuration (s p d ...):                           6  10   0


 MOLECULE KIND INFORMATION


 All atoms are their own molecule, skipping detailed information


 TOTAL NUMBERS AND MAXIMUM NUMBERS

  Total number of            - Atomic kinds:                                   2
                             - Atoms:                                          3
                             - Shell sets:                                    28
                             - Shells:                                        28
                             - Primitive Cartesian functions:                 42
                             - Cartesian basis functions:                     75
                             - Spherical basis functions:                     68

  Maximum angular momentum of the orbital basis functions:                     3


 MODULE QUICKSTEP: ATOMIC COORDINATES IN ANGSTROM

   Atom Kind Element         X             Y             Z       Z(eff)     Mass
      1    1 H     1     10.966557     10.000000     10.471859   1.0000   1.0079
      2    1 H     1      9.033443     10.000000     10.471859   1.0000   1.0079
      3    2 S    16     10.000000     10.000000      9.528141  16.0000  32.0650



 SCF PARAMETERS         Density guess:                                   RESTART
                        --------------------------------------------------------
                        max_scf:                                              20
                        max_scf_history:                                       0
                        max_diis:                                              4
                        --------------------------------------------------------
                        eps_scf:                                        1.00E-07
                        eps_scf_history:                                0.00E+00
                        eps_diis:                                       1.00E-01
                        eps_eigval:                                     1.00E-05
                        --------------------------------------------------------
                        level_shift [a.u.]:                             0.000000
                        --------------------------------------------------------
                        Outer loop SCF in use 
                        No variables optimised in outer loop
                        eps_scf                                         1.00E-07
                        max_scf                                               50
                        No outer loop optimization
                        step_size                                       5.00E-01

 PW_GRID| Information for grid number                                          1
 PW_GRID| Grid distributed over                                   128 processors
 PW_GRID| Real space group dimensions                                   128    1
 PW_GRID| the grid is blocked:                                                NO
 PW_GRID| Cutoff [a.u.]                                                   1200.0
 PW_GRID| spherical cutoff:                                                   NO
 PW_GRID|   Bounds   1           -300     299                Points:         600
 PW_GRID|   Bounds   2           -300     299                Points:         600
 PW_GRID|   Bounds   3           -300     299                Points:         600
 PW_GRID| Volume element (a.u.^3)  0.2499E-03     Volume (a.u.^3)     53986.6767
 PW_GRID| Grid span                                                    FULLSPACE
 PW_GRID|   Distribution                         Average         Max         Min
 PW_GRID|   G-Vectors                          1687500.0     1687800     1687200
 PW_GRID|   G-Rays                                2812.5        2813        2812
 PW_GRID|   Real Space Points                  1687500.0     1800000     1440000

 PW_GRID| Information for grid number                                          2
 PW_GRID| Number of the reference grid                                         1
 PW_GRID| Grid distributed over                                   128 processors
 PW_GRID| Real space group dimensions                                   128    1
 PW_GRID| the grid is blocked:                                                NO
 PW_GRID| Cutoff [a.u.]                                                    600.0
 PW_GRID| spherical cutoff:                                                   NO
 PW_GRID|   Bounds   1           -216     215                Points:         432
 PW_GRID|   Bounds   2           -216     215                Points:         432
 PW_GRID|   Bounds   3           -216     215                Points:         432
 PW_GRID| Volume element (a.u.^3)  0.6696E-03     Volume (a.u.^3)     53986.6767
 PW_GRID| Grid span                                                    FULLSPACE
 PW_GRID|   Distribution                         Average         Max         Min
 PW_GRID|   G-Vectors                           629856.0      630288      629424
 PW_GRID|   G-Rays                                1458.0        1459        1457
 PW_GRID|   Real Space Points                   629856.0      746496      559872

 PW_GRID| Information for grid number                                          3
 PW_GRID| Number of the reference grid                                         2
 PW_GRID| Grid distributed over                                   128 processors
 PW_GRID| Real space group dimensions                                   128    1
 PW_GRID| the grid is blocked:                                                NO
 PW_GRID| Cutoff [a.u.]                                                    200.0
 PW_GRID| spherical cutoff:                                                   NO
 PW_GRID|   Bounds   1           -121     121                Points:         243
 PW_GRID|   Bounds   2           -121     121                Points:         243
 PW_GRID|   Bounds   3           -121     121                Points:         243
 PW_GRID| Volume element (a.u.^3)  0.3762E-02     Volume (a.u.^3)     53986.6767
 PW_GRID| Grid span                                                    FULLSPACE
 PW_GRID|   Distribution                         Average         Max         Min
 PW_GRID|   G-Vectors                           112100.8      112266      111780
 PW_GRID|   G-Rays                                 461.3         462         460
 PW_GRID|   Real Space Points                   112100.8      118098       59049

 PW_GRID| Information for grid number                                          4
 PW_GRID| Number of the reference grid                                         2
 PW_GRID| Grid distributed over                                   128 processors
 PW_GRID| Real space group dimensions                                   128    1
 PW_GRID| the grid is blocked:                                                NO
 PW_GRID| Cutoff [a.u.]                                                     66.7
 PW_GRID| spherical cutoff:                                                   NO
 PW_GRID|   Bounds   1            -72      71                Points:         144
 PW_GRID|   Bounds   2            -72      71                Points:         144
 PW_GRID|   Bounds   3            -72      71                Points:         144
 PW_GRID| Volume element (a.u.^3)  0.1808E-01     Volume (a.u.^3)     53986.6767
 PW_GRID| Grid span                                                    FULLSPACE
 PW_GRID|   Distribution                         Average         Max         Min
 PW_GRID|   G-Vectors                            23328.0       23472       23184
 PW_GRID|   G-Rays                                 162.0         163         161
 PW_GRID|   Real Space Points                    23328.0       41472       20736

 PW_GRID| Information for grid number                                          5
 PW_GRID| Number of the reference grid                                         2
 PW_GRID| Grid distributed over                                   128 processors
 PW_GRID| Real space group dimensions                                     8   16
 PW_GRID| the grid is blocked:                                                NO
 PW_GRID| Cutoff [a.u.]                                                     22.2
 PW_GRID| spherical cutoff:                                                   NO
 PW_GRID|   Bounds   1            -40      40                Points:          81
 PW_GRID|   Bounds   2            -40      40                Points:          81
 PW_GRID|   Bounds   3            -40      40                Points:          81
 PW_GRID| Volume element (a.u.^3)  0.1016         Volume (a.u.^3)     53986.6767
 PW_GRID| Grid span                                                    FULLSPACE
 PW_GRID|   Distribution                         Average         Max         Min
 PW_GRID|   G-Vectors                             4151.9        4293        4050
 PW_GRID|   G-Rays                                  51.3          53          50
 PW_GRID|   Real Space Points                     4151.9        5346        4050

 PW_GRID| Information for grid number                                          6
 PW_GRID| Number of the reference grid                                         2
 PW_GRID| Grid distributed over                                   128 processors
 PW_GRID| Real space group dimensions                                     8   16
 PW_GRID| the grid is blocked:                                                NO
 PW_GRID| Cutoff [a.u.]                                                      7.4
 PW_GRID| spherical cutoff:                                                   NO
 PW_GRID|   Bounds   1            -24      23                Points:          48
 PW_GRID|   Bounds   2            -24      23                Points:          48
 PW_GRID|   Bounds   3            -24      23                Points:          48
 PW_GRID| Volume element (a.u.^3)  0.4882         Volume (a.u.^3)     53986.6767
 PW_GRID| Grid span                                                    FULLSPACE
 PW_GRID|   Distribution                         Average         Max         Min
 PW_GRID|   G-Vectors                              864.0         912         816
 PW_GRID|   G-Rays                                  18.0          19          17
 PW_GRID|   Real Space Points                      864.0         864         864

 POISSON| Solver                                          Martyna-Tuckerman (MT)
 POISSON| MT| Alpha                                                        7.000
 POISSON| MT| Relative cutoff                                                2.0
 POISSON| Periodicity                                                       NONE

 RS_GRID| Information for grid number                                          2
 RS_GRID|   Bounds   1           -216     215                Points:         432
 RS_GRID|   Bounds   2           -216     215                Points:         432
 RS_GRID|   Bounds   3           -216     215                Points:         432
 RS_GRID| Real space distribution over                                  4 groups
 RS_GRID| Real space distribution along direction                              1
 RS_GRID| Border size                                                         44
 RS_GRID| Real space distribution over                                  4 groups
 RS_GRID| Real space distribution along direction                              2
 RS_GRID| Border size                                                         44
 RS_GRID| Real space distribution over                                  8 groups
 RS_GRID| Real space distribution along direction                              3
 RS_GRID| Border size                                                         44
 RS_GRID|   Distribution                         Average         Max         Min
 RS_GRID|   Planes                                 196.0         196         196
 RS_GRID|   Distribution                         Average         Max         Min
 RS_GRID|   Planes                                 196.0         196         196
 RS_GRID|   Distribution                         Average         Max         Min
 RS_GRID|   Planes                                 142.0         142         142

 RS_GRID| Information for grid number                                          3
 RS_GRID|   Bounds   1           -121     121                Points:         243
 RS_GRID|   Bounds   2           -121     121                Points:         243
 RS_GRID|   Bounds   3           -121     121                Points:         243
 RS_GRID| Real space distribution over                                  4 groups
 RS_GRID| Real space distribution along direction                              1
 RS_GRID| Border size                                                         33
 RS_GRID| Real space distribution over                                  4 groups
 RS_GRID| Real space distribution along direction                              2
 RS_GRID| Border size                                                         33
 RS_GRID| Real space distribution over                                  8 groups
 RS_GRID| Real space distribution along direction                              3
 RS_GRID| Border size                                                         33
 RS_GRID|   Distribution                         Average         Max         Min
 RS_GRID|   Planes                                 126.8         127         126
 RS_GRID|   Distribution                         Average         Max         Min
 RS_GRID|   Planes                                 126.8         127         126
 RS_GRID|   Distribution                         Average         Max         Min
 RS_GRID|   Planes                                  96.4          97          96

 RS_GRID| Information for grid number                                          4
 RS_GRID|   Bounds   1            -72      71                Points:         144
 RS_GRID|   Bounds   2            -72      71                Points:         144
 RS_GRID|   Bounds   3            -72      71                Points:         144
 RS_GRID| Real space fully replicated
 RS_GRID| Group size                                                           1

 RS_GRID| Information for grid number                                          5
 RS_GRID|   Bounds   1            -40      40                Points:          81
 RS_GRID|   Bounds   2            -40      40                Points:          81
 RS_GRID|   Bounds   3            -40      40                Points:          81
 RS_GRID| Real space fully replicated
 RS_GRID| Group size                                                           1

 RS_GRID| Information for grid number                                          6
 RS_GRID|   Bounds   1            -24      23                Points:          48
 RS_GRID|   Bounds   2            -24      23                Points:          48
 RS_GRID|   Bounds   3            -24      23                Points:          48
 RS_GRID| Real space fully replicated
 RS_GRID| Group size                                                           1

  HFX_INFO| Replica ID:                                                        1
  HFX_INFO| FRACTION:                                               0.2500000000
  HFX_INFO| Interaction Potential:                                       COULOMB
  HFX_INFO| EPS_SCHWARZ:                                                 1.0E-10
  HFX_INFO| EPS_SCHWARZ_FORCES                                           1.0E-06
  HFX_INFO| EPS_STORAGE_SCALING:                                         1.0E+00
  HFX_INFO| NBINS:                                                            64
  HFX_INFO| BLOCK_SIZE:                                                        1
  HFX_INFO| Number of periodic shells considered:                           NONE
  HFX_INFO| Number of periodic cells considered:                            NONE


 Number of electrons:                                                         18
 Number of occupied orbitals:                                                  9
 Number of molecular orbitals:                                                 9

 Number of orbital functions:                                                 68
 Number of independent orbital functions:                                     68

 Extrapolation method: initial_guess


 SCF WAVEFUNCTION OPTIMIZATION

  ----------------------------------- OT ---------------------------------------
  Minimizer      : DIIS                : direct inversion
                                         in the iterative subspace
                                         using   7 DIIS vectors
                                         safer DIIS on
  Preconditioner : FULL_ALL            : diagonalization, state selective
  Precond_solver : DEFAULT
  stepsize       :    0.15000000                  energy_gap     :    0.08000000
  eps_taylor     :   0.10000E-15                  max_taylor     :             4
  ----------------------------------- OT ---------------------------------------

  Step     Update method      Time    Convergence         Total energy    Change
  ------------------------------------------------------------------------------

  HFX_MEM_INFO| Est. max. program size before HFX [MiB]:                     944
  HFX_MEM_INFO| Number of cart. primitive ERI's calculated:             36139670
  HFX_MEM_INFO| Number of sph. ERI's calculated:                         7122656
  HFX_MEM_INFO| Number of sph. ERI's stored in-core:                     7122656
  HFX_MEM_INFO| Number of sph. ERI's stored on disk:                           0
  HFX_MEM_INFO| Number of sph. ERI's calculated on the fly:                    0
  HFX_MEM_INFO| Total memory consumption ERI's RAM [MiB]:                     22
  HFX_MEM_INFO| Whereof max-vals [MiB]:                                        2
  HFX_MEM_INFO| Total compression factor ERI's RAM:                         2.49
  HFX_MEM_INFO| Total memory consumption ERI's disk [MiB]:                     0
  HFX_MEM_INFO| Total compression factor ERI's disk:                        0.00
  HFX_MEM_INFO| Size of density/Fock matrix [MiB]:                             0
  HFX_MEM_INFO| Size of buffers [MiB]:                                         0
  HFX_MEM_INFO| Est. max. program size after HFX  [MiB]:                     942

     1 OT DIIS     0.15E+00   93.9     0.00000002      -399.2608946120 -3.99E+02

  *** SCF run converged in     1 steps ***


  Electronic density on regular grids:        -11.4240581040        6.5759418960
  Core density on regular grids:               18.0000000000       -0.0000000000
  Hard and soft densities (Lebedev):          -20.3419374789      -13.7659952031
  Total Rho_soft + Rho1_hard - Rho1_soft      -18.0000003798
  Total charge density (r-space):              -0.0000003798
  Total Rho_soft + Rho0_soft (g-space):        -0.0000002203

  Overlap energy of the core charge distribution:               0.00000051073774
  Self energy of the core charge distribution:               -174.76444004657884
  Core Hamiltonian energy:                                   -227.41873377339300
  Hartree energy:                                              46.47516664878345
  Exchange-correlation energy:                                 -4.85578473957530
  Hartree-Fock Exchange energy:                                -6.42250953250257

  GAPW| Exc from hard and soft atomic rho1:                   -14.97609911117042
  GAPW| local Eh = 1 center integrals:                        -17.29849456829768

  Total energy:                                              -399.26089461199660

  outer SCF iter =    1 RMS gradient =   0.19E-07 energy =       -399.2608946120
  outer SCF loop converged in   1 iterations or    1 steps


 !-----------------------------------------------------------------------------!
                     Mulliken Population Analysis

 #  Atom  Element  Kind  Atomic population                           Net charge
       1     H        1          0.888059                              0.111941
       2     H        1          0.888059                              0.111941
       3     S        2         16.223882                             -0.223882
 # Total charge                             18.000000                 -0.000000

 !-----------------------------------------------------------------------------!

 !-----------------------------------------------------------------------------!
                           Hirshfeld Charges

  #Atom  Element  Kind  Ref Charge     Population                    Net charge
      1       H      1       1.000          0.377                         0.623
      2       H      1       1.000          0.377                         0.623
      3       S      2      16.000         17.246                        -1.246

  Total Charge                                                            0.000
 !-----------------------------------------------------------------------------!

 *******************************************************************************
 **                                                                           **
 **         ######## #######   #######   ######## #######  ########           **
 **            ##    ##     ## ##     ## ##       ##   ##     ##              **
 **            ##    ##     ## ##     ## ######   #######     ##              **
 **            ##    ##     ## ##     ## ##       ##          ##              **
 **            ##    #######   #######   ##       ##          ##              **
 **                                                                           **
 *******************************************************************************
 KERNEL|                                                                    FULL
 FUNCTIONAL| PBE:
 FUNCTIONAL| J.P.Perdew, K.Burke, M.Ernzerhof, Phys. Rev. Letter, vol. 77, n 18,
 FUNCTIONAL|  pp. 3865-3868, (1996)sx=0.750sc=1.000{spin unpolarized}           
 KERNEL|                                                          Exact Exchange
 KERNEL| Spin symmetry of excitations                                    Triplet
 TDDFPT| Number of states calculated                                          10
 TDDFPT| Number of Davidson iterations                                        20
 TDDFPT| Davidson iteration convergence                                0.100E-07
 TDDFPT| Max. number of Krylov space vectors                                  60
 TDDFPT| Molecular Orbitals:        Spin       AOs       Occ      Virt     Total
 TDDFPT|                               1        68         9        59        68

 *******************************************************************************
 **                                                                           **
 **                            ####### ####### #######                        **
 **                        #   ##      ##   ## ##                             **
 **                       ###  ######  ##   ## ##                             **
 **                        #       ##  ##   ## ##                             **
 **                            ######  ####### #######                        **
 **                 Based on the xas module from Augustin Bussy               **
 *******************************************************************************
 
 -------------------------------------------------------------------------------
 -                      TDDFPT TRIPLET ENERGIES                                 -
 -------------------------------------------------------------------------------
 
 -------------------------------------------------------------------------------
 -                            TDDFPT Initial Guess                             -
 -------------------------------------------------------------------------------
          State         Occupied      ->      Virtual          Excitation
          number         orbital              orbital          energy (eV)
 -------------------------------------------------------------------------------
             1                9                   10              8.07249
             2                9                   11              8.37457
             3                8                   10             10.94709
             4                8                   11             11.24918
             5                9                   12             12.83772
             6                7                   10             12.92064
             7                7                   11             13.22272
             8                9                   13             13.62048
             9                9                   14             14.52548
            10                9                   15             14.74760

      Number of active states:                                        531
 -------------------------------------------------------------------------------
 
 -------------------------------------------------------------------------------
 -                      TDDFPT WAVEFUNCTION OPTIMIZATION                       -
 -------------------------------------------------------------------------------

          Step            Time         Convergence           Conv. states
 -------------------------------------------------------------------------------

    State    Exc. energy (eV)      Convergence (eV)
        1       5.5933770            -2.4791E+00
        2       6.1749241            -2.1996E+00
        3       7.9219952            -3.0251E+00
        4       8.8970211            -2.3522E+00
        5      10.0609536            -2.7768E+00
        6      10.8153003            -2.1053E+00
        7      10.9427691            -2.2800E+00
        8      11.0587923            -2.5617E+00
        9      12.1589466            -2.3665E+00
       10      12.1957798            -2.5518E+00
 
             1           530.6          1.1117E-01                      0

    State    Exc. energy (eV)      Convergence (eV)
        1       5.4895559            -1.0382E-01
        2       6.0984296            -7.6494E-02
        3       7.7057797            -2.1622E-01
        4       8.7077591            -1.8926E-01
        5       9.8947896            -1.6616E-01
        6      10.6117962            -2.0350E-01
        7      10.9037737            -3.8995E-02
        8      10.9111655            -1.4763E-01
        9      12.0661262            -9.2820E-02
       10      12.1308866            -6.4893E-02
 
             2           519.2          7.9458E-03                      0

    State    Exc. energy (eV)      Convergence (eV)
        1       5.4892064            -3.4952E-04
        2       6.0977421            -6.8753E-04
        3       7.7041147            -1.6650E-03
        4       8.7056351            -2.1240E-03
        5       9.8933278            -1.4618E-03
        6      10.6061043            -5.6919E-03
        7      10.8987378            -5.0358E-03
        8      10.9033581            -7.8074E-03
        9      12.0600693            -6.0569E-03
       10      12.1188233            -1.2063E-02
 
             3           513.4          4.4332E-04                      0

    State    Exc. energy (eV)      Convergence (eV)
        1       5.4892054            -9.7312E-07
        2       6.0977344            -7.7085E-06
        3       7.7040638            -5.0813E-05
        4       8.7055954            -3.9671E-05
        5       9.8932845            -4.3286E-05
        6      10.6055593            -5.4501E-04
        7      10.8979399            -7.9797E-04
        8      10.9033552            -2.9046E-06
        9      12.0599052            -1.6414E-04
       10      12.1125326            -6.2907E-03
 
             4           499.4          2.3118E-04                      0

    State    Exc. energy (eV)      Convergence (eV)
        1       5.4892054            -1.8637E-09
        2       6.0977344            -4.6643E-09
        3       7.7040635            -3.2874E-07
        4       8.7055940            -1.3898E-06
        5       9.8932843            -2.2944E-07
        6      10.6055461            -1.3211E-05
        7      10.8979380            -1.9089E-06
        8      10.9033552            -1.8164E-08
        9      12.0598782            -2.6943E-05
       10      12.1124971            -3.5503E-05
 
             5           521.4          1.3047E-06                      4

    State    Exc. energy (eV)      Convergence (eV)
        1       5.4892054            -4.1177E-12
        2       6.0977344            -6.9031E-12
        3       7.7040635            -3.6042E-09
        4       8.7055940            -1.9091E-08
        5       9.8932843            -1.0984E-09
        6      10.6055458            -2.3971E-07
        7      10.8979380            -1.2369E-08
        8      10.9033552            -1.2610E-10
        9      12.0598738            -4.4538E-06
       10      12.1124969            -2.8306E-07
 
             6           457.4          1.6368E-07                      8
 ------------------------- Restart Davidson iterations -------------------------

    State    Exc. energy (eV)      Convergence (eV)
        1       5.4892054             6.0421E-15
        2       6.0977344            -4.3806E-14
        3       7.7040635             0.0000E+00
        4       8.7055940            -1.8126E-14
        5       9.8932843             1.5105E-15
        6      10.6055458             3.0211E-15
        7      10.8979380            -1.2084E-14
        8      10.9033552            -1.5105E-15
        9      12.0598738             1.2084E-14
       10      12.1124969            -1.5105E-15
 
             7           437.5          1.6098E-15                     10
 
 -------------------------------------------------------------------------------
 -  TDDFPT run converged in 7 iteration(s) 
 -------------------------------------------------------------------------------

 R-TDDFPT states of multiplicity 3
 Transition dipoles calculated using velocity formulation

         State    Excitation        Transition dipole (a.u.)        Oscillator
         number   energy (eV)       x           y           z     strength (a.u.)
         ------------------------------------------------------------------------
 TDDFPT|      1       5.48921   0.0000E+00  0.0000E+00  0.0000E+00   0.00000E+00
 TDDFPT|      2       6.09773   0.0000E+00  0.0000E+00  0.0000E+00   0.00000E+00
 TDDFPT|      3       7.70406   0.0000E+00  0.0000E+00  0.0000E+00   0.00000E+00
 TDDFPT|      4       8.70559   0.0000E+00  0.0000E+00  0.0000E+00   0.00000E+00
 TDDFPT|      5       9.89328   0.0000E+00  0.0000E+00  0.0000E+00   0.00000E+00
 TDDFPT|      6      10.60555   0.0000E+00  0.0000E+00  0.0000E+00   0.00000E+00
 TDDFPT|      7      10.89794   0.0000E+00  0.0000E+00  0.0000E+00   0.00000E+00
 TDDFPT|      8      10.90336   0.0000E+00  0.0000E+00  0.0000E+00   0.00000E+00
 TDDFPT|      9      12.05987   0.0000E+00  0.0000E+00  0.0000E+00   0.00000E+00
 TDDFPT|     10      12.11250   0.0000E+00  0.0000E+00  0.0000E+00   0.00000E+00

 TDDFPT : CheckSum  =  0.112828E+01
 
 -------------------------------------------------------------------------------
 -                            Excitation analysis                              -
 -------------------------------------------------------------------------------
        State             Occupied              Virtual             Excitation
        number             orbital              orbital             amplitude
 -------------------------------------------------------------------------------
             1   5.48921 eV
                                 9                   10              -0.995515
                                 9                   19               0.071912
             2   6.09773 eV
                                 9                   11               0.991574
                                 9                   13              -0.076443
                                 9                   14              -0.068108
                                 9                   16               0.062552
             3   7.70406 eV
                                 8                   10              -0.980003
                                 7                   11               0.135154
                                 8                   19               0.099085
                                 9                   17               0.060466
             4   8.70559 eV
                                 8                   11               0.912404
                                 7                   10              -0.379630
                                 8                   16               0.084189
                                 8                   14              -0.066984
                                 8                   13              -0.062625
             5   9.89328 eV
                                 7                   10              -0.910974
                                 8                   11              -0.389404
                                 7                   19               0.091470
                                 9                   15               0.052277
             6  10.60555 eV
                                 7                   11              -0.975158
                                 8                   10              -0.134307
                                 7                   14               0.104793
                                 9                   17               0.062654
                                 8                   12              -0.054040
                                 7                   13               0.053913
                                 6                   10              -0.053599
             7  10.89794 eV
                                 9                   13               0.928900
                                 9                   14               0.293124
                                 9                   16              -0.163181
                                 9                   20              -0.109163
                                 9                   11               0.101968
             8  10.90336 eV
                                 9                   12              -0.997731
             9  12.05987 eV
                                 9                   15              -0.989514
                                 8                   13              -0.078887
                                 6                   11               0.060011
                                 8                   14               0.054948
            10  12.11250 eV
                                 9                   14              -0.925820
                                 9                   16              -0.267384
                                 9                   13               0.248933
                                 8                   15               0.060997
 -------------------------------------------------------------------------------
 
 -------------------------------------------------------------------------------
 -                            Natural Orbital analysis                         -
 -------------------------------------------------------------------------------
   STATE NR.      1             5.48921 eV
     Particle-Hole state: 1   Spin:1     Eigenvalue: 0.99698   Sum Eigv: 0.99698
   STATE NR.      2             6.09773 eV
     Particle-Hole state: 1   Spin:1     Eigenvalue: 0.99890   Sum Eigv: 0.99890
   STATE NR.      3             7.70406 eV
     Particle-Hole state: 1   Spin:1     Eigenvalue: 0.97286   Sum Eigv: 0.97286
     Particle-Hole state: 2   Spin:1     Eigenvalue: 0.02214   Sum Eigv: 0.99499
   STATE NR.      4             8.70559 eV
     Particle-Hole state: 1   Spin:1     Eigenvalue: 0.85152   Sum Eigv: 0.85152
     Particle-Hole state: 2   Spin:1     Eigenvalue: 0.14689   Sum Eigv: 0.99841
   STATE NR.      5             9.89328 eV
     Particle-Hole state: 1   Spin:1     Eigenvalue: 0.83930   Sum Eigv: 0.83930
     Particle-Hole state: 2   Spin:1     Eigenvalue: 0.15477   Sum Eigv: 0.99407
   STATE NR.      6            10.60555 eV
     Particle-Hole state: 1   Spin:1     Eigenvalue: 0.96884   Sum Eigv: 0.96884
     Particle-Hole state: 2   Spin:1     Eigenvalue: 0.02320   Sum Eigv: 0.99204
   STATE NR.      7            10.89794 eV
     Particle-Hole state: 1   Spin:1     Eigenvalue: 0.99801   Sum Eigv: 0.99801
   STATE NR.      8            10.90336 eV
     Particle-Hole state: 1   Spin:1     Eigenvalue: 0.99879   Sum Eigv: 0.99879
   STATE NR.      9            12.05987 eV
     Particle-Hole state: 1   Spin:1     Eigenvalue: 0.98038   Sum Eigv: 0.98038
   STATE NR.     10            12.11250 eV
     Particle-Hole state: 1   Spin:1     Eigenvalue: 0.99267   Sum Eigv: 0.99267
 -------------------------------------------------------------------------------
 
                       triplet excitations finished                             
                                                                                
 -------------------------------------------------------------------------------
 -                      TDDFPT SINGLET ENERGIES                                -
 -------------------------------------------------------------------------------
 
 -------------------------------------------------------------------------------
 -                            TDDFPT Initial Guess                             -
 -------------------------------------------------------------------------------
          State         Occupied      ->      Virtual          Excitation
          number         orbital              orbital          energy (eV)
 -------------------------------------------------------------------------------
             1                9                   10              8.07249
             2                9                   11              8.37457
             3                8                   10             10.94709
             4                8                   11             11.24918
             5                9                   12             12.83772
             6                7                   10             12.92064
             7                7                   11             13.22272
             8                9                   13             13.62048
             9                9                   14             14.52548
            10                9                   15             14.74760

      Number of active states:                                        531
 -------------------------------------------------------------------------------
 
 -------------------------------------------------------------------------------
 -                      TDDFPT WAVEFUNCTION OPTIMIZATION                       -
 -------------------------------------------------------------------------------

          Step            Time         Convergence           Conv. states
 -------------------------------------------------------------------------------

    State    Exc. energy (eV)      Convergence (eV)
        1       6.1296680            -1.9428E+00
        2       6.9015504            -1.4730E+00
        3       9.8220661            -1.1250E+00
        4      10.5977279            -6.5145E-01
        5      11.0753553            -1.7624E+00
        6      12.3639175            -5.5672E-01
        7      12.4033978            -8.1932E-01
        8      12.7007067            -9.1978E-01
        9      13.2033444            -1.3221E+00
       10      15.0992635             3.5166E-01
 
             1           489.9          7.1397E-02                      0

    State    Exc. energy (eV)      Convergence (eV)
        1       6.0975159            -3.2152E-02
        2       6.8296359            -7.1915E-02
        3       9.7769174            -4.5149E-02
        4       9.9472157            -6.5051E-01
        5      11.0629684            -1.2387E-02
        6      11.9348224            -4.2910E-01
        7      12.0021396            -4.0126E-01
        8      12.1353571            -5.6535E-01
        9      12.5169072            -6.8644E-01
       10      13.6024013            -1.4969E+00
 
             2           508.4          5.5009E-02                      0

    State    Exc. energy (eV)      Convergence (eV)
        1       6.0972595            -2.5639E-04
        2       6.8295017            -1.3419E-04
        3       9.7763098            -6.0760E-04
        4       9.9387289            -8.4868E-03
        5      11.0628537            -1.1470E-04
        6      11.9315956            -3.2268E-03
        7      11.9786687            -2.3471E-02
        8      12.1225014            -1.2856E-02
        9      12.4993771            -1.7530E-02
       10      13.5910502            -1.1351E-02
 
             3           505.4          8.6254E-04                      0

    State    Exc. energy (eV)      Convergence (eV)
        1       6.0972592            -3.1615E-07
        2       6.8295015            -2.2366E-07
        3       9.7763013            -8.5270E-06
        4       9.9386394            -8.9488E-05
        5      11.0628534            -2.4488E-07
        6      11.9314899            -1.0571E-04
        7      11.9780691            -5.9961E-04
        8      12.1223122            -1.8919E-04
        9      12.4991034            -2.7370E-04
       10      13.5904497            -6.0050E-04
 
             4           512.0          2.2068E-05                      2

    State    Exc. energy (eV)      Convergence (eV)
        1       6.0972592            -4.1027E-10
        2       6.8295015            -2.3791E-10
        3       9.7763012            -8.1233E-08
        4       9.9386384            -9.7352E-07
        5      11.0628534            -8.3562E-10
        6      11.9314881            -1.7699E-06
        7      11.9780522            -1.6834E-05
        8      12.1223096            -2.6335E-06
        9      12.4990987            -4.7069E-06
       10      13.5904175            -3.2232E-05
 
             5           526.9          1.1845E-06                      4

    State    Exc. energy (eV)      Convergence (eV)
        1       6.0972592            -1.0891E-12
        2       6.8295015            -2.7492E-13
        3       9.7763012            -2.3877E-10
        4       9.9386384            -4.8809E-09
        5      11.0628534            -2.8111E-12
        6      11.9314881            -1.7427E-08
        7      11.9780521            -1.3544E-07
        8      12.1223096            -1.0732E-08
        9      12.4990987            -2.5509E-08
       10      13.5904174            -1.3861E-07
 
             6           460.8          5.0938E-09                     10
 ------------------------- Restart Davidson iterations -------------------------

    State    Exc. energy (eV)      Convergence (eV)
        1       6.0972592             1.8126E-14
        2       6.8295015            -4.5316E-15
        3       9.7763012            -9.0632E-15
        4       9.9386384             1.2084E-14
        5      11.0628534            -7.5527E-15
        6      11.9314881             2.2658E-14
        7      11.9780521             2.1147E-14
        8      12.1223096            -1.2084E-14
        9      12.4990987            -1.2084E-14
       10      13.5904174            -7.5527E-15
 
             7           431.9          8.3267E-16                     10
 
 -------------------------------------------------------------------------------
 -  TDDFPT run converged in 7 iteration(s) 
 -------------------------------------------------------------------------------

 R-TDDFPT states of multiplicity 1
 Transition dipoles calculated using velocity formulation

         State    Excitation        Transition dipole (a.u.)        Oscillator
         number   energy (eV)       x           y           z     strength (a.u.)
         ------------------------------------------------------------------------
 TDDFPT|      1       6.09726   3.3801E-09 -6.1490E-09 -3.1430E-12   7.35473E-18
 TDDFPT|      2       6.82950  -1.3468E-09  3.3884E-01  1.2246E-07   1.92100E-02
 TDDFPT|      3       9.77630   1.0518E-07  2.7926E-07 -7.2815E-01   1.26993E-01
 TDDFPT|      4       9.93864  -5.7445E-01  1.5762E-08 -1.6958E-07   8.03499E-02
 TDDFPT|      5      11.06285   1.4379E-09  8.8664E-09  1.2216E-08   6.23146E-17
 TDDFPT|      6      11.93149  -1.0621E+00  1.7980E-08 -2.7372E-07   3.29760E-01
 TDDFPT|      7      11.97805   3.6584E-07  3.0959E-07 -8.1677E-01   1.95767E-01
 TDDFPT|      8      12.12231   4.8108E-08  2.6938E-01  1.0041E-07   2.15520E-02
 TDDFPT|      9      12.49910   3.2097E-08 -1.7545E-01 -6.1909E-08   9.42610E-03
 TDDFPT|     10      13.59042  -1.2694E-08 -1.3707E-07  1.8025E-01   1.08180E-02

 TDDFPT : CheckSum  =  0.125931E+01
 
 -------------------------------------------------------------------------------
 -                            Excitation analysis                              -
 -------------------------------------------------------------------------------
        State             Occupied              Virtual             Excitation
        number             orbital              orbital             amplitude
 -------------------------------------------------------------------------------
             1   6.09726 eV
                                 9                   10              -0.998707
             2   6.82950 eV
                                 9                   11              -0.997423
             3   9.77630 eV
                                 8                   11              -0.974415
                                 7                   10              -0.210845
             4   9.93864 eV
                                 8                   10               0.935737
                                 7                   11               0.235888
                                 9                   17               0.215119
                                 7                   14              -0.097411
                                 7                   13              -0.091991
             5  11.06285 eV
                                 9                   12              -0.999108
             6  11.93149 eV
                                 7                   11              -0.958746
                                 8                   10               0.188690
                                 9                   17               0.166528
                                 8                   12              -0.084049
                                 7                   13              -0.082430
             7  11.97805 eV
                                 7                   10               0.887342
                                 9                   15               0.300590
                                 9                   18               0.253251
                                 8                   11              -0.165532
                                 8                   16               0.157067
[...]
 flops    54 x     9 x     9                52488       0.0%    100.0%      0.0%
 flops    54 x     9 x    14               108864       0.0%    100.0%      0.0%
 flops    54 x     9 x    40               155520       0.0%    100.0%      0.0%
 flops    14 x    27 x    14               169344       0.0%    100.0%      0.0%
 flops    14 x    32 x    14               200704       0.0%    100.0%      0.0%
 flops    14 x    27 x    40               241920       0.0%    100.0%      0.0%
 flops    40 x    27 x    14               241920       0.0%    100.0%      0.0%
 flops    40 x    32 x    14               286720       0.0%    100.0%      0.0%
 flops    14 x    32 x    40               286720       0.0%    100.0%      0.0%
 flops    40 x    27 x    40               345600       0.0%    100.0%      0.0%
 flops    40 x    32 x    40               409600       0.0%    100.0%      0.0%
 flops    14 x    40 x     9              2842560       0.0%    100.0%      0.0%
 flops    40 x    14 x     9              2842560       0.0%    100.0%      0.0%
 flops    14 x    14 x     9              2984688       0.0%    100.0%      0.0%
 flops     9 x     9 x    14              6373080       0.0%    100.0%      0.0%
 flops    40 x    40 x     9              8121600       0.0%    100.0%      0.0%
 flops     9 x     9 x    40              9104400       0.0%    100.0%      0.0%
 flops    14 x     9 x    14             14006160       0.0%    100.0%      0.0%
 flops    40 x     9 x    14             19333440       0.0%    100.0%      0.0%
 flops    14 x     9 x    40             19373760       0.0%    100.0%      0.0%
 flops    40 x     9 x    40             29433600       0.0%    100.0%      0.0%
 flops inhomo. stacks                           0       0.0%      0.0%      0.0%
 flops total                       116.930314E+06       0.0%    100.0%      0.0%
 flops max/rank                     67.630410E+06       0.0%    100.0%      0.0%
 matmuls inhomo. stacks                         0       0.0%      0.0%      0.0%
 matmuls total                              14836       0.0%    100.0%      0.0%
 number of processed stacks                 13996       0.0%    100.0%      0.0%
 average stack size                                     0.0       1.1       0.0
 marketing flops                   126.606040E+06
 -------------------------------------------------------------------------------
 # multiplications                           1213
 max memory usage/rank               1.529487E+09
 # max total images/rank                        2
 # max 3D layers                                1
 # MPI messages exchanged                 4502656
 MPI messages size (bytes):
  total size                       581.305856E+06
  min size                           0.000000E+00
  max size                          17.280000E+03
  average size                     129.102875E+00
 MPI breakdown and total messages size (bytes):
             size <=      128             4377051                        0
       128 < size <=     8192              111989                347065216
      8192 < size <=    32768               13616                234240640
     32768 < size <=   131072                   0                        0
    131072 < size <=  4194304                   0                        0
   4194304 < size <= 16777216                   0                        0
  16777216 < size                               0                        0
 -------------------------------------------------------------------------------

 *** WARNING in dbcsr_mm.F:291 :: Using a non-square number of MPI ranks ***
 *** might lead to poor performance. Used ranks: 128 Suggested: 121 256  ***

 -------------------------------------------------------------------------------
 -                                                                             -
 -                      DBCSR MESSAGE PASSING PERFORMANCE                      -
 -                                                                             -
 -------------------------------------------------------------------------------
 ROUTINE             CALLS      AVE VOLUME [Bytes]
 MP_Bcast               24                     12.
 MP_Allreduce         4618                      8.
 MP_Alltoall         26750                  38303.
 MP_ISend            75696                    652.
 MP_IRecv            75150                    425.
 -------------------------------------------------------------------------------

 -------------------------------------------------------------------------------
 -                                                                             -
 -                                DBM STATISTICS                               -
 -                                                                             -
 -------------------------------------------------------------------------------
    M  x    N  x    K                                          COUNT     PERCENT
 -------------------------------------------------------------------------------

 -------------------------------------------------------------------------------
 -                                                                             -
 -                                GRID STATISTICS                              -
 -                                                                             -
 -------------------------------------------------------------------------------
 LP    KERNEL             BACKEND                              COUNT     PERCENT
 2     collocate general  CPU                                  28032      15.02%
 2     integrate general  CPU                                  27264      14.61%
 1     collocate ortho    CPU                                  20736      11.11%
 1     integrate ortho    CPU                                  20304      10.88%
 2     collocate ortho    CPU                                  17424       9.34%
 2     integrate ortho    CPU                                  17061       9.14%
 0     collocate ortho    CPU                                  13680       7.33%
 0     integrate ortho    CPU                                  13395       7.18%
 3     collocate ortho    CPU                                   9504       5.09%
 3     integrate ortho    CPU                                   9306       4.99%
 4     collocate ortho    CPU                                   3600       1.93%
 4     integrate ortho    CPU                                   3525       1.89%
 5     collocate ortho    CPU                                    864       0.46%
 5     integrate ortho    CPU                                    846       0.45%
 0     collocate general  CPU                                    384       0.21%
 0     integrate general  CPU                                    384       0.21%
 6     collocate ortho    CPU                                    144       0.08%
 6     integrate ortho    CPU                                    141       0.08%
 -------------------------------------------------------------------------------

 MEMORY| Estimated peak process memory [MiB]                                1478

 -------------------------------------------------------------------------------
 ----                             MULTIGRID INFO                            ----
 -------------------------------------------------------------------------------
 count for grid        1:         552525          cutoff [a.u.]          600.00
 count for grid        2:          83984          cutoff [a.u.]          200.00
 count for grid        3:          96830          cutoff [a.u.]           66.67
 count for grid        4:          27568          cutoff [a.u.]           22.22
 count for grid        5:           1920          cutoff [a.u.]            7.41
 total gridlevel count  :         762827

 -------------------------------------------------------------------------------
 -                                                                             -
 -                         MESSAGE PASSING PERFORMANCE                         -
 -                                                                             -
 -------------------------------------------------------------------------------

 ROUTINE             CALLS      AVE VOLUME [Bytes]
 MP_Group                6
 MP_Bcast             1025                 353584.
 MP_Allreduce         7008                  14907.
 MP_Sync              1471
 MP_Alltoall          3796               18532973.
 MP_SendRecv         54864                 127152.
 MP_ISendRecv       125349                  61784.
 MP_Wait            158914
 MP_comm_split          58
 MP_ISend            27778                 802664.
 MP_IRecv            30416                 732985.
 -------------------------------------------------------------------------------


 -------------------------------------------------------------------------------
 -                                                                             -
 -                           R E F E R E N C E S                               -
 -                                                                             -
 -------------------------------------------------------------------------------
 
 CP2K version 2024.1 (Development Version), the CP2K developers group (2024).
 CP2K is freely available from https://www.cp2k.org/ .

 Kuehne,Thomas D.; Iannuzzi,Marcella; Del Ben,Mauro;
 Rybkin,Vladimir V.; Seewald,Patrick; Stein,Frederick; Laino,Teodoro;
 Khaliullin,Rustam Z.; Schuett,Ole; Schiffmann,Florian; Golze,Dorothea;
 Wilhelm,Jan; Chulkov,Sergey; Bani-Hashemian,Mohammad Hossein;
 Weber,Valery; Borstnik,Urban; Taillefumier,Mathieu;
 Jakobovits,Alice Shoshana; Lazzaro,Alfio; Pabst,Hans; Mueller,Tiziano;
 Schade,Robert; Guidon,Manuel; Andermatt,Samuel; Holmberg,Nico;
 Schenter,Gregory K.; Hehn,Anna; Bussy,Augustin; Belleflamme,Fabian;
 Tabacchi,Gloria; Gloess,Andreas; Lass,Michael; Bethune,Iain;
 Mundy,Christopher J.; Plessl,Christian; Watkins,Matt;
 VandeVondele,Joost; Krack,Matthias; Hutter,Juerg. 
 The Journal of Chemical Physics, 152 (19), (2020). 
 CP2K: An electronic structure and molecular dynamics software package -
 Quickstep: Efficient and accurate electronic structure calculations.
 https://doi.org/10.1063/5.0007045

 Schuett, Ole; Messmer, Peter; Hutter, Juerg; VandeVondele, Joost. 
 Electronic Structure Calculations on Graphics Processing Units, John
 Wiley & Sons, Ltd, 173-190 (2016). 
 GPU-Accelerated Sparse Matrix-Matrix Multiplication for
 Linear Scaling Density Functional Theory.
 https://doi.org/10.1002/9781118670712.ch8

 Heinecke, A; Henry, G; Hutchinson, M; Pabst, H. 
 Proceedings of Intl. Supercomputing Conference, 981-991 (2016). 
 LIBXSMM: Accelerating Small Matrix Multiplications
 by Runtime Code Generation.
 https://doi.org/10.1109/SC.2016.83

 Borstnik, U; VandeVondele, J; Weber, V; Hutter, J. 
 PARALLEL COMPUTING, 40 (5-6), 47-58 (2014). 
 Sparse matrix multiplication: The distributed block-compressed sparse
 row library.
 https://doi.org/10.1016/j.parco.2014.03.012

 Hutter, J; Iannuzzi, M; Schiffmann, F; VandeVondele, J. 
 WIREs Comput Mol Sci., 4 (1), 15-25 (2014). 
 CP2K: atomistic simulations of condensed matter systems.
 https://doi.org/10.1002/wcms.1159

 Guidon, M; Hutter, J; VandeVondele, J. 
 JOURNAL OF CHEMICAL THEORY AND COMPUTATION, 5 (11), 3010-3021 (2009). 
 Robust Periodic Hartree-Fock Exchange for Large-Scale Simulations Using
 Gaussian Basis Sets.
 https://doi.org/10.1021/ct900494g

 Guidon, M; Schiffmann, F; Hutter, J; VandeVondele, J. 
 JOURNAL OF CHEMICAL PHYSICS, 128 (21), 214104 (2008). 
 Ab initio molecular dynamics using hybrid density functionals.
 https://doi.org/10.1063/1.2931945

 Frigo, M; Johnson, SG. 
 PROCEEDINGS OF THE IEEE, 93 (2), 216-231 (2005). 
 The design and implementation of FFTW3.
 https://doi.org/10.1109/JPROC.2004.840301

 Iannuzzi, M; Chassaing, T; Wallman, T; Hutter, J. 
 CHIMIA, 59 (7-8), 499-503 (2005). 
 Ground and excited state density functional calculations with the
 Gaussian and augmented-plane-wave method.
 https://doi.org/10.2533/000942905777676164

 VandeVondele, J; Hutter, J. 
 JOURNAL OF CHEMICAL PHYSICS, 118 (10), 4365-4369 (2003). 
 An efficient orbital transformation method for electronic structure
 calculations.
 https://doi.org/10.1063/1.1543154

 Martin,Richard L.. 
 The Journal of Chemical Physics, 118 (11), 4775-4777 (2003). 
 Natural transition orbitals.
 https://doi.org/10.1063/1.1558471

 Lippert, G; Hutter, J; Parrinello, M. 
 THEORETICAL CHEMISTRY ACCOUNTS, 103 (2), 124-140 (1999). 
 The Gaussian and augmented-plane-wave density functional method for ab
 initio molecular dynamics simulations.
 https://doi.org/10.1007/s002140050523

 Krack, M; Parrinello, M. 
 PHYSICAL CHEMISTRY CHEMICAL PHYSICS, 2 (10), 2105-2112 (2000). 
 All-electron ab-initio molecular dynamics.
 https://doi.org/10.1039/b001167n

 Martyna, GJ; Tuckerman, ME. 
 JOURNAL OF CHEMICAL PHYSICS, 110 (6), 2810-2821 (1999). 
 A reciprocal space based method for treating long range interactions in
 ab initio and force-field-based calculations in clusters.
 https://doi.org/10.1063/1.477923

 Perdew, JP; Burke, K; Ernzerhof, M. 
 PHYSICAL REVIEW LETTERS, 77 (18), 3865-3868 (1996). 
 Generalized gradient approximation made simple.
 https://doi.org/10.1103/PhysRevLett.77.3865


 -------------------------------------------------------------------------------
 -                                                                             -
 -                                T I M I N G                                  -
 -                                                                             -
 -------------------------------------------------------------------------------
 SUBROUTINE                       CALLS  ASD         SELF TIME        TOTAL TIME
                                MAXIMUM       AVERAGE  MAXIMUM  AVERAGE  MAXIMUM
 CP2K                                 1  1.0    4.537    4.621 7972.111 7972.164
 qs_energies                          1  2.0    0.012    0.049 7910.112 7910.167
 qs_energies_properties               1  3.0    0.000    0.011 7771.515 7771.556
 tddfpt                               1  4.0    0.013    0.071 7771.514 7771.556
 tddfpt_soc_energies                  1  5.0    0.001    0.026 7741.815 7741.879
 tddfpt_energies                      2  6.0    0.001    0.022 7660.153 7660.303
 tddfpt_davidson_solver               4  7.0    0.028    0.099 6999.619 6999.700
 tddfpt_compute_Aop_evects           14  8.0    0.013    0.082 6209.743 6209.965
 fhxc_kernel                         14  9.0    0.018    0.070 4088.899 4089.098
 mp_waitall_1                    264354 14.5 2262.521 2302.782 2262.521 2302.782
 tddfpt_apply_hfx                    14  9.0    0.006    0.035 1818.575 1818.662
 cp_dbcsr_sm_fm_multiply            881  9.5    0.012    0.037 1749.622 1764.622
 qs_rho_update_rho_low              144  9.9    0.011    0.056 1591.940 1593.215
 calculate_rho_elec                 144 10.9    0.300    0.464 1521.140 1522.880
 integrate_v_rspace                 141 10.0    0.005    0.030 1506.931 1509.470
 density_rs2pw                      144 11.9    0.013    0.039 1496.169 1499.595
 potential_pw2rs                    141 11.0    0.033    0.086 1473.628 1479.992
 dbcsr_complete_redistribute       2812 11.5    0.078    0.149 1399.339 1428.213
 transfer_pw2rs                     777 12.0    0.008    0.042 1362.450 1368.912
 transfer_rs2pw                     794 12.8    0.009    0.032 1315.389 1321.521
 integrate_four_center              281 11.0    0.077    0.128 1126.826 1130.701
 mp_sendrecv_dv                   54864 14.9 1106.739 1122.858 1106.739 1122.858
 tddft_hfx_matrix                   280 10.0    0.009    0.022 1116.154 1120.050
 copy_dbcsr_to_fm                   928 10.4    0.010    0.043  994.739 1008.430
 transfer_pw2rs_70                  141 13.0    3.878    5.361  846.366  876.963
 transfer_rs2pw_70                  144 13.9    2.517    3.667  725.954  746.605
 copy_fm_to_dbcsr                  1880 10.6    0.006    0.028  660.033  689.433
 pw_transfer                       3138 12.5    0.250    0.417  653.018  660.281
 fft_wrap_pw1pw2                   2923 13.6    0.025    0.065  652.009  659.273
 mp_alltoall_d11v                 11505 12.8  594.739  642.967  594.739  642.967
 fft3d_ps                          2923 15.6   67.807   72.853  615.563  625.086
 dbcsr_multiply_generic            1213 11.3    0.055    0.128  567.376  592.145
 integrate_four_center_getP         281 12.0    0.037    0.117  570.406  573.752
 tddfpt_print_nto_analysis            2  7.0    0.012    0.058  571.725  572.064
 integrate_four_center_dist_KS      281 12.0    0.035    0.072  519.098  519.741
 tddfpt_orthonormalize_psi1_psi      16  7.9    0.012    0.048  513.682  516.600
 mp_alltoall_i11v                  9364 12.5  502.180  503.637  502.180  503.637
 cp_fm_syevd                         58  8.6    0.009    0.035  490.744  491.490
 mp_alltoall_z22v                  2923 17.6  440.926  451.502  440.926  451.502
 fft_wrap_pw1pw2_600               1782 14.6    6.620    8.219  444.043  450.788
 cp_fm_redistribute_end              58  9.6  225.870  414.022  230.412  416.351
 cp_dbcsr_sm_fm_multiply_core       881 10.5    0.002    0.013  354.690  378.234
 cp_fm_geeig                         20  8.0    0.009    0.047  373.682  374.188
 cp_fm_syevd_base                    58  9.6  182.545  370.036  182.545  370.036
 tddfpt_apply_xc_analytic           140 10.0    1.131    1.832  339.717  340.758
 mp_cart_sub                       1864 12.4  306.566  307.807  306.566  307.807
 tddfpt_apply_energy_diff            14  9.0    0.001    0.014  302.256  302.365
 mp_waitany                       27778 14.3  266.774  294.215  266.774  294.215
 cp_dbcsr_plus_fm_fm_t_native       141 10.0    0.006    0.036  288.990  290.687
 mp_sum_l                          4673 11.3  268.276  279.102  268.276  279.102
 xc_pw_derive                      1065 11.8    0.025    0.064  272.317  276.136
 dbcsr_desymmetrize_deep            928 11.4    0.017    0.058  256.816  271.450
 mp_sum_dv                         4178 10.0  241.692  244.664  241.692  244.664
 mp_alltoall_i22                   3740 12.5  199.798  235.762  199.798  235.762
 cp_fm_trace_a1b1t1_aa             3880  9.0    0.008    0.046  224.185  227.295
 mp_sync                           1471 12.7  204.828  220.384  204.828  220.384
 transfer_pw2rs_30                  141 13.0    0.426    0.807  210.088  220.102
 x_to_yz                           1280 16.1    8.545   11.898  216.007  219.936
 yz_to_x                           1073 17.1    5.649    6.844  209.240  218.560
 transfer_rs2pw_30                  144 13.9    0.314    0.669  204.165  213.973
 transfer_pw2rs_10                  141 13.0    0.105    0.236  189.251  192.693
 tddfpt_compute_residual_vects       10  8.0    0.000    0.011  191.430  191.744
 transfer_rs2pw_10                  144 13.9    0.075    0.313  179.526  186.375
 multiply_cannon                   1213 12.3    0.071    0.126  161.635  181.151
 xc_calc_2nd_deriv_analytical       420 11.0   25.836   28.635  174.111  174.846
 transfer_rs2pw_200                 144 13.9    1.314    1.770  162.617  172.674
 -------------------------------------------------------------------------------

 The number of warnings for this run is : 1
 
 -------------------------------------------------------------------------------
  **** **** ******  **  PROGRAM ENDED AT                 2024-02-07 18:13:22.472
 ***** ** ***  *** **   PROGRAM RAN ON                               nesh-srp304
 **    ****   ******    PROGRAM RAN BY                                  suphc355
 ***** **    ** ** **   PROGRAM PROCESS ID                                321580
  **** **  *******  **  PROGRAM STOPPED IN /gxfs_work/cau/suphc355/homologes/H2X
                                           /AE/S
