       3
 i =        5, E =     -6594.1851568869
  H        11.1332257887        9.9999998549       10.5555477842
  H         8.8667742050        9.9999999017       10.5555479220
 Te         9.9999999260       10.0000002566        9.4121252570
