 hostname is         elgar

 data group $actual step is not empty 
 due to the abend of dscf


 dscf (elgar) : TURBOMOLE V7.0( 19819 ) 16 Jun 2015 at 11:29:46
 Copyright (C) 2015 TURBOMOLE GmbH, Karlsruhe


    2024-02-12 12:56:48.760 



                             d s c f - program

                   idea & directorship : reinhart ahlrichs
                   program development : marco haeser
                                         michael baer
                           dft version : oliver treutler


                          quantum chemistry group
                          universitaet  karlsruhe
                                  germany




                          References             
                                                 
          TURBOMOLE:                             
              R. Ahlrichs, M. Baer, M. Haeser, H. Horn, and
              C. Koelmel
              Electronic structure calculations on workstation
              computers: the program system TURBOMOLE
              Chem. Phys. Lett. 162: 165 (1989)
          Density Functional:                              
              O. Treutler and R. Ahlrichs                      
              Efficient Molecular Numerical Integration Schemes
              J. Chem. Phys. 102: 346 (1995)                   
          Parallel Version:                                
              Performance of parallel TURBOMOLE for Density    
              Functional Calculations                          
              M. v. Arnim and R. Ahlrichs                      
              J. Comp. Chem. 19: 1746 (1998)                   
                                         




              +--------------------------------------------------+
              | Atomic coordinate, charge and isotop information |
              +--------------------------------------------------+

                    atomic coordinates            atom    charge  isotop
         -1.34851448    0.00000000   -0.36723389    c      6.000     0
          1.34851448    0.00000000   -0.36723389    c      6.000     0
         -2.65971822    0.00000000    1.96258750    c      6.000     0
         -1.33705869    0.00000000    4.19230117    c      6.000     0
          1.33705869    0.00000000    4.19230117    c      6.000     0
          2.65971822    0.00000000    1.96258750    c      6.000     0
          2.67165471    0.00000000   -2.57471220    n      7.000     0
         -2.67165471    0.00000000   -2.57471220    n      7.000     0
         -1.33982622    0.00000000   -4.66308312    c      6.000     0
          1.33982622    0.00000000   -4.66308312    c      6.000     0
         -2.36641046    0.00000000   -6.44056555    h      1.000     0
          2.36641046    0.00000000   -6.44056555    h      1.000     0
         -4.70524645    0.00000000    1.91415746    h      1.000     0
         -2.34078894    0.00000000    5.97654862    h      1.000     0
          2.34078894    0.00000000    5.97654862    h      1.000     0
          4.70524645    0.00000000    1.91415746    h      1.000     0
 
       center of nuclear mass  :    0.00000000    0.00000000   -0.32414992
       center of nuclear charge:    0.00000000    0.00000000   -0.28898279

              +--------------------------------------------------+
              |               basis set information              |
              +--------------------------------------------------+

              we will work with the 1s 3p 5d 7f 9g ... basis set
              ...i.e. with spherical basis functions...

   type   atoms  prim   cont   basis
   ---------------------------------------------------------------------------
    c        8     46     31   def2-TZVP   [5s3p2d1f|11s6p2d1f]
    n        2     46     31   def2-TZVP   [5s3p2d1f|11s6p2d1f]
    h        6      8      6   def2-TZVP   [3s1p|5s1p]
   ---------------------------------------------------------------------------
   total:   16    508    346
   ---------------------------------------------------------------------------

   total number of primitive shells          :   46
   total number of contracted shells         :  134
   total number of cartesian basis functions :  396
   total number of SCF-basis functions       :  346


 integral neglect threshold       :  0.84E-11
 integral storage threshold THIZE :  0.10E-04
 integral storage threshold THIME :         5


 symmetry group of the molecule :   c2v

 the group has the following generators :
   c2(z)
   mirror plane sigma(xz)

    4 symmetry operations found

 there are 4 real representations :   a1   a2   b1   b2  

 maximum number of shells which are related by symmetry :  2


    mo occupation :
   irrep   mo's   occupied
    a1     120       16
    a2      53        2
    b1     120       13
    b2      53        3
 
 number of basis functions   :          346
 number of occupied orbitals :           34
 

          ------------------------
          nuclear repulsion energy  :   467.118040041    
          ------------------------

 
          -----------------
          -S,T+V- integrals
          -----------------

 1e-integrals will be neglected if expon. factor < 0.843930E-12
 
   Difference densities algorithm switched on.
   The maximal number of linear combinations of
   difference densities is          20 .

 DIIS switched on: error vector is FDS-SDF
 Max. Iterations for DIIS is     :   5
 DIIS matrix (see manual) 
    Scaling factor of diagonals  :  1.200
    threshold for scaling factor :  0.000

 scf convergence criterion : increment of total energy < .1000000D-06
                  and increment of one-electron energy < .1000000D-03

  MOs are in ASCII format !


 reading orbital data $scfmo  from file mos . 

 orbital characterization : scfconv=7
 

 DSCF restart information will be dumped onto file mos

 
                                              current damping :  1.000
 ITERATION  ENERGY          1e-ENERGY        2e-ENERGY     NORM[dD(SAO)]  TOL
   1  -415.48025141317    -1488.2633298     605.66503836    0.000D+00 0.842D-11
          max. resid. norm for Fia-block=  4.097D-05 for orbital      3b2        
          max. resid. fock norm         =  4.098D-05 for orbital      3b2        
          Delta Eig. =     0.0000176750 eV 
 
                                              current damping :  1.000
 ITERATION  ENERGY          1e-ENERGY        2e-ENERGY     NORM[dD(SAO)]  TOL
   2  -415.48025141823    -1488.2633728     605.66508133    0.623D-04 0.534D-11
          Norm of current diis error: 0.22607E-03
          max. resid. norm for Fia-block=  3.713D-05 for orbital      3b2        
          max. resid. fock norm         =  3.718D-05 for orbital      3b2        
          Delta Eig. =     0.0001124135 eV 

 ENERGY CONVERGED !

 
                                              current damping :  0.850
 ITERATION  ENERGY          1e-ENERGY        2e-ENERGY     NORM[dD(SAO)]  TOL
   3  -415.48025142312    -1488.2633917     605.66510024    0.762D-05 0.369D-11
          max. resid. norm for Fia-block=  3.044D-05 for orbital      3b2        
          max. resid. fock norm         =  3.046D-05 for orbital      3b2        

 convergence criteria satisfied after  3 iterations


                  ------------------------------------------ 
                 |  total energy      =   -415.48025142312  |
                  ------------------------------------------ 
                 :  kinetic energy    =    414.92532914852  :
                 :  potential energy  =   -830.40558057165  :
                 :  virial theorem    =      1.99866438351  :
                 :  wavefunction norm =      1.00000000000  :
                  .......................................... 


 orbitals $scfmo  will be written to file mos

    irrep                 12a1        13a1        14a1        15a1        16a1  
 eigenvalues H         -0.70400    -0.64782    -0.60856    -0.52423    -0.40741
            eV         -19.1571    -17.6283    -16.5598    -14.2651    -11.0862
 occupation              2.0000      2.0000      2.0000      2.0000      2.0000 

    irrep                 17a1        18a1        19a1        20a1        21a1  
 eigenvalues H          0.15590     0.16705     0.19063     0.20834     0.25967
            eV           4.2423      4.5456      5.1875      5.6692      7.0660

    irrep                  1a2         2a2         3a2         4a2         5a2  
 eigenvalues H         -0.45729    -0.32736     0.10158     0.23755     0.34152
            eV         -12.4436     -8.9079      2.7641      6.4642      9.2932
 occupation              2.0000      2.0000 

    irrep                  6a2         7a2         8a2         9a2        10a2  
 eigenvalues H          0.37721     0.43051     0.51887     0.58032     0.72336
            eV          10.2645     11.7149     14.1193     15.7915     19.6838

    irrep                  9b1        10b1        11b1        12b1        13b1  
 eigenvalues H         -0.74429    -0.62260    -0.59908    -0.52443    -0.49678
            eV         -20.2533    -16.9418    -16.3020    -14.2706    -13.5182
 occupation              2.0000      2.0000      2.0000      2.0000      2.0000 

    irrep                 14b1        15b1        16b1        17b1        18b1  
 eigenvalues H          0.17908     0.19372     0.20387     0.27707     0.32703
            eV           4.8731      5.2714      5.5476      7.5395      8.8989

    irrep                  1b2         2b2         3b2         4b2         5b2  
 eigenvalues H         -0.58746    -0.47903    -0.33406     0.05102     0.14351
            eV         -15.9857    -13.0352     -9.0902      1.3882      3.9052
 occupation              2.0000      2.0000      2.0000 

    irrep                  6b2         7b2         8b2         9b2        10b2  
 eigenvalues H          0.31618     0.34371     0.40868     0.47399     0.60765
            eV           8.6036      9.3530     11.1209     12.8981     16.5352
 
 
 
 
 ==============================================================================
                           electrostatic moments
 ==============================================================================

 reference point for electrostatic moments:    0.00000   0.00000   0.00000

 
              nuc           elec       ->  total
 ------------------------------------------------------------------------------
                          charge      
 ------------------------------------------------------------------------------
          68.000000     -68.000000      -0.000000
 
 ------------------------------------------------------------------------------
                       dipole moment  
 ------------------------------------------------------------------------------
   x       0.000000       0.000000       0.000000
   y       0.000000       0.000000       0.000000
   z     -19.650830      19.723926       0.073096
 
   | dipole moment | =     0.0731 a.u. =     0.1858 debye 
 
 ------------------------------------------------------------------------------
                     quadrupole moment
 ------------------------------------------------------------------------------
  xx     316.070846    -360.986318     -44.915471
  yy       0.000000     -45.778067     -45.778067
  zz     774.212159    -807.304207     -33.092048
  xy       0.000000       0.000000       0.000000
  xz      -0.000000      -0.000000      -0.000000
  yz       0.000000       0.000000       0.000000
 
     1/3  trace=     -41.261862
     anisotropy=      12.277470
 
 ==============================================================================
 
 


    ------------------------------------------------------------------------
         total  cpu-time :  44.89 seconds
         total wall-time :  45.16 seconds
    ------------------------------------------------------------------------


   ****  dscf : all done  ****


    2024-02-12 12:57:33.893 

