 hostname is         elgar

 data group $actual step is not empty 
 due to the abend of escf


 escf (elgar) : TURBOMOLE V7.0( 19819 ) 16 Jun 2015 at 11:29:46
 Copyright (C) 2015 TURBOMOLE GmbH, Karlsruhe


    2024-02-12 13:06:43.306 




                                e s c f

                       quantum chemistry group
                       university of karlsruhe
                               germany


          integral direct evaluation of 

                    * excitation energies and transition moments 
                    * dynamic response properties 
                    * stabilities



          references (see also programs dscf and ridft) 

          implementation and benchmarks (review) 
          F. Furche and D. Rappoport,  
          "Density functional methods for excited states: 
          equilibrium structure and electronic spectra",
          ch. III of "Computational Photochemistry", ed. by 
          M. Olivucci, vol. 16 of "Theoretical and Computational 
          Chemistry", Elsevier, Amsterdam, 2005.

          two-component TDDFT with spin-orbit coupling 
          M. Kuehn and F. Weigend, 
          J. Chem. Theory Comput. 9 (2013), 5341.

          GW quasi particle energies
          M. J. van Setten, F. Weigend, and F. Evers,
          J. Chem. Theory Comput. 9 (2013), 232.

          Current-density dependent meta-GGA Linear Response
          J. E. Bates and F. Furche, 
          J. Chem. Phys. 137 (2012), 164105.

          spin-flip method 
          M. Kuehn and F. Weigend, 
          Chem. Phys. Chem. 12 (2011), 3331.

          RI-J method 
          R. Bauernschmitt, M. Haeser, O. Treutler, and R. Ahlrichs,
          Chem. Phys. Lett. 264 (1997), 573.

          density functional implementation               
          R. Bauernschmitt and R. Ahlrichs,
          Chem. Phys. Lett. 256 (1996), 454.
          R. Bauernschmitt and R. Ahlrichs,
          J. Chem. Phys. 104 (1996), 9047.

          UHF extension (RPA and CIS)
          C. Ochsenfeld, J. Gauss, and R. Ahlrichs, 
          J. Chem. Phys. 103 (1995), 7401.

          integral direct algorithm                 
          H. Weiss, R. Ahlrichs, and M. Haeser, 
          J. Chem. Phys. 99 (1993), 1262.
                                     




              +--------------------------------------------------+
              | Atomic coordinate, charge and isotop information |
              +--------------------------------------------------+

                    atomic coordinates            atom    charge  isotop
         -1.34851448    0.00000000   -0.36723389    c      6.000     0
          1.34851448    0.00000000   -0.36723389    c      6.000     0
         -2.65971822    0.00000000    1.96258750    c      6.000     0
         -1.33705869    0.00000000    4.19230117    c      6.000     0
          1.33705869    0.00000000    4.19230117    c      6.000     0
          2.65971822    0.00000000    1.96258750    c      6.000     0
          2.67165471    0.00000000   -2.57471220    n      7.000     0
         -2.67165471    0.00000000   -2.57471220    n      7.000     0
         -1.33982622    0.00000000   -4.66308312    c      6.000     0
          1.33982622    0.00000000   -4.66308312    c      6.000     0
         -2.36641046    0.00000000   -6.44056555    h      1.000     0
          2.36641046    0.00000000   -6.44056555    h      1.000     0
         -4.70524645    0.00000000    1.91415746    h      1.000     0
         -2.34078894    0.00000000    5.97654862    h      1.000     0
          2.34078894    0.00000000    5.97654862    h      1.000     0
          4.70524645    0.00000000    1.91415746    h      1.000     0
 
       center of nuclear mass  :    0.00000000    0.00000000   -0.32414992
       center of nuclear charge:    0.00000000    0.00000000   -0.28898279

              +--------------------------------------------------+
              |               basis set information              |
              +--------------------------------------------------+

              we will work with the 1s 3p 5d 7f 9g ... basis set
              ...i.e. with spherical basis functions...

   type   atoms  prim   cont   basis
   ---------------------------------------------------------------------------
    c        8     46     31   def2-TZVP   [5s3p2d1f|11s6p2d1f]
    n        2     46     31   def2-TZVP   [5s3p2d1f|11s6p2d1f]
    h        6      8      6   def2-TZVP   [3s1p|5s1p]
   ---------------------------------------------------------------------------
   total:   16    508    346
   ---------------------------------------------------------------------------

   total number of primitive shells          :   46
   total number of contracted shells         :  134
   total number of cartesian basis functions :  396
   total number of SCF-basis functions       :  346


 residuum convergence criterium   :  0.10E-04


 integral neglect threshold       :  0.84E-11
 integral storage threshold THIZE :  0.10E-04
 integral storage threshold THIME :         5

 CI SINGLES SINGLET-CALCULATION (TAMM-DANCOFF-APPROXIMATION)

 symmetry group of the molecule :   c2v

 the group has the following generators :
   c2(z)
   mirror plane sigma(xz)

    4 symmetry operations found

 there are 4 real representations :   a1   a2   b1   b2  

 maximum number of shells which are related by symmetry :  2

 IRREPs of excited states :   a1   a2   b1   b2  
 

 determining totally symmetric integral contributions 
    - equivalent to irreducible tensor elements - 
 which can be formed within each triple of representations :

             representation triple      contributions

              a1    a1    a1              1
              a1    a2    a2              1
              a1    b1    b1              1
              a1    b2    b2              1
              a2    a1    a2              1
              a2    a2    a1              1
              a2    b1    b2              1
              a2    b2    b1              1
              b1    a1    b1              1
              b1    a2    b2              1
              b1    b1    a1              1
              b1    b2    a2              1
              b2    a1    b2              1
              b2    a2    b1              1
              b2    b1    a2              1
              b2    b2    a1              1

    mo occupation :
   irrep   mo's   occupied
    a1     120       16
    a2      53        2
    b1     120       13
    b2      53        3
 
 number of basis functions   :          346
 number of occupied orbitals :           34
 

 biggest AO integral is expected to be     6.862573055
  MOs are in ASCII format !


 reading orbital data $scfmo  from file mos . 

 orbital characterization : scfconv=7
 
 all orbitals will be included in the transformation

 number of non-frozen orbitals          :   346
 number of non-frozen occupied orbitals :    34



 dimension of super-tensorspace: 1

          IRREP   tensor space dimension   number of roots

           a1             3307                  10
           a2             1995                  10
           b1             3317                  10
           b2             1989                  10

 maximum number of Davidson iterations set to   25


 machine precision: 2.22D-16


 logfile ciss_a1   will be constructed

 logfile ciss_a2   will be constructed

 logfile ciss_b1   will be constructed

 logfile ciss_b2   will be constructed


                       Block Davidson iteration


 total number of roots to be determined:  40


 maximum core memory set to   338 MB,
 corresponding to      278 vectors in CAO basis


 maximum number of simultaneously treated vectors (including degeneracy):       72


 Iteration IRREP Converged      Max. Euclidean
                 roots          residual norm

    1       a1       0        1.648489874160219D-01
            a2       0        1.198790392063792D-01
            b1       0        1.730437386306158D-01
            b2       0        1.170060634501948D-01
 
    2       a1       0        4.544081501323340D-02
            a2       0        4.285935532536369D-02
            b1       0        4.011000806600279D-02
            b2       0        3.107224264643875D-02
 
    3       a1       0        2.172143240497795D-02
            a2       0        4.382301143082410D-02
            b1       0        1.856661525795315D-02
            b2       0        1.289172101543761D-02
 
    4       a1       0        7.430043570946445D-03
            a2       0        4.246529232254830D-02
            b1       0        8.237010899504770D-03
            b2       0        5.970197162454803D-02
 
    5       a1       0        2.721519567681221D-03
            a2       0        7.544184480053422D-02
            b1       0        3.767674601544574D-03
            b2       0        2.071051351749174D-02
 
    6       a1       0        8.233261057238248D-04
            a2       0        1.405571551783480D-02
            b1       0        1.225896737499156D-03
            b2       0        6.050826443442557D-03
 
    7       a1       3        2.346501501901559D-04
            a2       0        4.665869142414195D-03
            b1       2        3.508685060977816D-04
            b2       1        1.711339786171010D-03
 
    8       a1       4        6.046835589289368D-05
            a2       3        1.051612723185575D-03
            b1       5        1.247950262345047D-04
            b2       3        5.359831228734432D-04
 
    9       a1       9        1.665816861384234D-05
            a2       5        2.494577149956425D-04
            b1       7        3.547684754675727D-05
            b2       6        1.193877880696964D-04
 
   10       a1      10        8.645565947936636D-06
            a2       6        4.845121125255491D-05
            b1      10        9.736745835480203D-06
            b2       8        2.404983637943420D-05
 
   11       a1      10        8.645565947936636D-06
            a2       9        1.007876536442458D-05
            b1      10        9.736745835480203D-06
            b2      10        8.702458411985403D-06
 
   12       a1      10        8.645565947936636D-06
            a2      10        9.122929370750785D-06
            b1      10        9.736745835480203D-06
            b2      10        8.702458411985403D-06
 

 converged!

 Eigenpairs written on logfile ciss_a1  

 Eigenpairs written on logfile ciss_a2  

 Eigenpairs written on logfile ciss_b1  

 Eigenpairs written on logfile ciss_b2  



 IRREP   Vector     Eigenvalue           Euclidean residual norm

  a1        1    1.916345343927117D-01    1.686504575054724D-06
            2    2.516027349330849D-01    4.750122784152432D-06
            3    2.879532282174631D-01    8.645565947936636D-06
            4    3.455877708487529D-01    7.733484377831385D-06
            5    3.586943869232517D-01    1.980185451523224D-06
            6    3.775845737224048D-01    3.119385855043619D-06
            7    3.914206564542146D-01    7.902052659594318D-06
            8    4.008414842948905D-01    3.905830870456207D-06
            9    4.035255400729039D-01    3.904144469603374D-06
           10    4.330302693841355D-01    3.895551879226415D-06

  a2        1    2.368834271280504D-01    5.487540507965845D-06
            2    2.719310126688937D-01    5.262325198260268D-06
            3    3.053568557681782D-01    4.599513791033711D-06
            4    3.258936491800460D-01    7.655419091897240D-06
            5    3.319046377487096D-01    3.210563486186234D-06
            6    3.613973366412991D-01    3.505382035498215D-06
            7    3.664064009384824D-01    3.333083031298994D-06
            8    3.704087791166913D-01    5.515975225570825D-06
            9    3.710089467241326D-01    2.270254310003694D-06
           10    3.739512303428735D-01    9.122929370750785D-06

  b1        1    1.908532117605946D-01    6.010974659516836D-06
            2    2.603232291395245D-01    7.799805037632218D-06
            3    2.687414307284113D-01    2.568940250506537D-06
            4    3.178242601068133D-01    3.618712433479685D-06
            5    3.642823742971373D-01    8.397791920212840D-06
            6    4.031381040528438D-01    5.079066342443348D-06
            7    4.079498045720014D-01    4.800864583612767D-06
            8    4.111430912457846D-01    1.958170418121962D-06
            9    4.354037477495286D-01    4.582158708592935D-06
           10    4.445521356265458D-01    9.736745835480203D-06

  b2        1    1.792123425360977D-01    6.239567334609397D-06
            2    3.188304861690076D-01    8.702458411985403D-06
            3    3.221680017474452D-01    4.225911561718366D-06
            4    3.266970372015734D-01    6.822508209909594D-06
            5    3.397356251593935D-01    4.264644790037649D-06
            6    3.472588325486126D-01    4.378697457282959D-06
            7    3.580787372438125D-01    5.148645527425379D-06
            8    3.720517083813217D-01    5.829546468757382D-06
            9    3.737582753392857D-01    1.955937254151613D-06
           10    3.771525293284090D-01    5.007628021106889D-06
 




                    Selection rules for point group c2v 


 Subduction with respect to c2v :

    Polar vector representation: a1, b1, b2                  

    Axial vector representation: a2, b1, b2                  

    Symmetric second rank tensor representation: a1, a2, b1, b2              




                            Ground state


 Total energy:                           -415.4802514231000    

 Charge:

               elec          nuc         total

           -68.000000    68.000000    -0.000000


 Electric dipole moment:

               elec          nuc         total   

    x        0.000000     0.000000     0.000000    Norm:              0.073096
    y        0.000000     0.000000     0.000000
    z       19.723926   -19.650830     0.073096    Norm / debye:      0.185794


 Electric quadrupole moment:

               elec          nuc         total   

   xx     -360.986318   316.070846   -44.915471
   yy      -45.778067     0.000000   -45.778067    1/3*trace:       -41.261862
   zz     -807.304207   774.212159   -33.092048
   xy        0.000000     0.000000     0.000000
   xz        0.000000    -0.000000    -0.000000    Anisotropy:       12.277470
   yz        0.000000     0.000000     0.000000



 ==============================================================================

                              I R R E P   a1  

 ==============================================================================


 Excitation is electric dipole allowed

 Excitation is magnetic dipole forbidden

 Excitation is electric quadrupole allowed




                         1 singlet a1 excitation


 Total energy:                           -415.2886168887073    

 Excitation energy:                      0.1916345343927117    

 Excitation energy / eV:                  5.214643235213569    

 Excitation energy / nm:                  237.7616999169273    

 Excitation energy / cm^(-1):             42058.91866520685    


 Oscillator strength:

    velocity representation:             0.5113729080029397E-02

    length representation:               0.1774229017252243    

    mixed representation:                0.3012129897623071E-01


 Rotatory strength:

    velocity representation:              0.000000000000000    

    velocity rep. / 10^(-40)erg*cm^3:     0.000000000000000    

    length representation:                0.000000000000000    

    length rep. / 10^(-40)erg*cm^3:       0.000000000000000    


 Dominant contributions:

    occ. orbital  energy / eV   virt. orbital  energy / eV   |coeff.|^2*100
       3 b2         -9.09           4 b2          1.39           73.2
       2 a2         -8.91           3 a2          2.76           22.2
 

 Change of electron number:

             0.000000


 Electric transition dipole moment (velocity rep.):

    x        0.000000        Norm:                  0.200068
    y        0.000000
    z       -0.200068        Norm / debye:          0.508526


 Electric transition dipole moment (length rep.):

    x        0.000000        Norm:                  1.178457
    y        0.000000
    z       -1.178457        Norm / debye:          2.995360


 Magnetic transition dipole moment / i:

    x        0.000000        Norm:                  0.000000
    y        0.000000
    z        0.000000        Norm / Bohr mag.:      0.000000


 Electric quadrupole transition moment:

   xx       -0.115560
   yy        0.038137        1/3*trace:             0.860114
   zz        2.657766
   xy        0.000000
   xz        0.000000        Anisotropy:            2.699761
   yz        0.000000




                         2 singlet a1 excitation


 Total energy:                           -415.2286486881669    

 Excitation energy:                      0.2516027349330849    

 Excitation energy / eV:                  6.846461697719673    

 Excitation energy / nm:                  181.0924379344200    

 Excitation energy / cm^(-1):             55220.41733254881    


 Oscillator strength:

    velocity representation:             0.1023031013507356    

    length representation:               0.9624092905310490    

    mixed representation:                0.3137793096908836    


 Rotatory strength:

    velocity representation:              0.000000000000000    

    velocity rep. / 10^(-40)erg*cm^3:     0.000000000000000    

    length representation:                0.000000000000000    

    length rep. / 10^(-40)erg*cm^3:       0.000000000000000    


 Dominant contributions:

    occ. orbital  energy / eV   virt. orbital  energy / eV   |coeff.|^2*100
       2 a2         -8.91           3 a2          2.76           49.6
       3 b2         -9.09           5 b2          3.91           27.2
       3 b2         -9.09           4 b2          1.39           13.6
 

 Change of electron number:

            -0.000000


 Electric transition dipole moment (velocity rep.):

    x        0.000000        Norm:                  0.780966
    y        0.000000
    z       -0.780966        Norm / debye:          1.985034


 Electric transition dipole moment (length rep.):

    x        0.000000        Norm:                  2.395344
    y        0.000000
    z       -2.395344        Norm / debye:          6.088403


 Magnetic transition dipole moment / i:

    x        0.000000        Norm:                  0.000000
    y        0.000000
    z        0.000000        Norm / Bohr mag.:      0.000000


 Electric quadrupole transition moment:

   xx       -0.611269
   yy        0.070037        1/3*trace:             0.697853
   zz        2.634791
   xy        0.000000
   xz        0.000000        Anisotropy:            2.964713
   yz        0.000000




                         3 singlet a1 excitation


 Total energy:                           -415.1922981948825    

 Excitation energy:                      0.2879532282174631    

 Excitation energy / eV:                  7.835609371455810    

 Excitation energy / nm:                  158.2317827865796    

 Excitation energy / cm^(-1):             63198.42842190053    


 Oscillator strength:

    velocity representation:             0.1804626305467824    

    length representation:                1.061253688131649    

    mixed representation:                0.4376261329465050    


 Rotatory strength:

    velocity representation:              0.000000000000000    

    velocity rep. / 10^(-40)erg*cm^3:     0.000000000000000    

    length representation:                0.000000000000000    

    length rep. / 10^(-40)erg*cm^3:       0.000000000000000    


 Dominant contributions:

    occ. orbital  energy / eV   virt. orbital  energy / eV   |coeff.|^2*100
       3 b2         -9.09           5 b2          3.91           57.6
       2 a2         -8.91           3 a2          2.76           22.9
       3 b2         -9.09           4 b2          1.39            7.7
       1 a2        -12.44           3 a2          2.76            5.0
 

 Change of electron number:

             0.000000


 Electric transition dipole moment (velocity rep.):

    x        0.000000        Norm:                  0.969568
    y        0.000000
    z       -0.969568        Norm / debye:          2.464415


 Electric transition dipole moment (length rep.):

    x        0.000000        Norm:                  2.351225
    y        0.000000
    z       -2.351225        Norm / debye:          5.976264


 Magnetic transition dipole moment / i:

    x        0.000000        Norm:                  0.000000
    y        0.000000
    z        0.000000        Norm / Bohr mag.:      0.000000


 Electric quadrupole transition moment:

   xx        0.551002
   yy       -0.277897        1/3*trace:            -1.178153
   zz       -3.807564
   xy        0.000000
   xz        0.000000        Anisotropy:            4.008910
   yz        0.000000




                         4 singlet a1 excitation


 Total energy:                           -415.1346636522513    

 Excitation energy:                      0.3455877708487529    

 Excitation energy / eV:                  9.403925744072593    

 Excitation energy / nm:                  131.8430699908675    

 Excitation energy / cm^(-1):             75847.74838146627    


 Oscillator strength:

    velocity representation:             0.1734907448749826E-02

    length representation:               0.1461508444006936E-01

    mixed representation:                0.5035456171905781E-02


 Rotatory strength:

    velocity representation:              0.000000000000000    

    velocity rep. / 10^(-40)erg*cm^3:     0.000000000000000    

    length representation:                0.000000000000000    

    length rep. / 10^(-40)erg*cm^3:       0.000000000000000    


 Dominant contributions:

    occ. orbital  energy / eV   virt. orbital  energy / eV   |coeff.|^2*100
       2 b2        -13.04           4 b2          1.39           76.0
       3 b2         -9.09           5 b2          3.91            6.1
       1 a2        -12.44           3 a2          2.76            5.9
       1 b2        -15.99           5 b2          3.91            3.1
 

 Change of electron number:

             0.000000


 Electric transition dipole moment (velocity rep.):

    x        0.000000        Norm:                  0.086777
    y        0.000000
    z       -0.086777        Norm / debye:          0.220567


 Electric transition dipole moment (length rep.):

    x        0.000000        Norm:                  0.251865
    y        0.000000
    z       -0.251865        Norm / debye:          0.640181


 Magnetic transition dipole moment / i:

    x        0.000000        Norm:                  0.000000
    y        0.000000
    z        0.000000        Norm / Bohr mag.:      0.000000


 Electric quadrupole transition moment:

   xx        3.645706
   yy       -0.195464        1/3*trace:            -0.830794
   zz       -5.942623
   xy        0.000000
   xz        0.000000        Anisotropy:            8.358244
   yz        0.000000




                         5 singlet a1 excitation


 Total energy:                           -415.1215570361767    

 Excitation energy:                      0.3586943869232517    

 Excitation energy / eV:                  9.760575066523870    

 Excitation energy / nm:                  127.0255524510033    

 Excitation energy / cm^(-1):             78724.31810414359    


 Oscillator strength:

    velocity representation:             0.2445051695505861E-02

    length representation:               0.3462397263283885E-01

    mixed representation:                0.9200945766119436E-02


 Rotatory strength:

    velocity representation:              0.000000000000000    

    velocity rep. / 10^(-40)erg*cm^3:     0.000000000000000    

    length representation:                0.000000000000000    

    length rep. / 10^(-40)erg*cm^3:       0.000000000000000    


 Dominant contributions:

    occ. orbital  energy / eV   virt. orbital  energy / eV   |coeff.|^2*100
       1 a2        -12.44           3 a2          2.76           64.2
       2 a2         -8.91           4 a2          6.46           15.7
       3 b2         -9.09           5 b2          3.91            5.1
       2 b2        -13.04           4 b2          1.39            3.4
       1 a2        -12.44           4 a2          6.46            1.0
      16 a1        -11.09          19 a1          5.19            0.9
 

 Change of electron number:

            -0.000000


 Electric transition dipole moment (velocity rep.):

    x        0.000000        Norm:                  0.101118
    y        0.000000
    z       -0.101118        Norm / debye:          0.257018


 Electric transition dipole moment (length rep.):

    x        0.000000        Norm:                  0.380515
    y        0.000000
    z       -0.380515        Norm / debye:          0.967180


 Magnetic transition dipole moment / i:

    x        0.000000        Norm:                  0.000000
    y        0.000000
    z        0.000000        Norm / Bohr mag.:      0.000000


 Electric quadrupole transition moment:

   xx       -2.698971
   yy        0.256464        1/3*trace:             2.901569
   zz       11.147213
   xy        0.000000
   xz        0.000000        Anisotropy:           12.630515
   yz        0.000000




                         6 singlet a1 excitation


 Total energy:                           -415.1026668493776    

 Excitation energy:                      0.3775845737224048    

 Excitation energy / eV:                  10.27460342324093    

 Excitation energy / nm:                  120.6705883421434    

 Excitation energy / cm^(-1):             82870.23487574173    


 Oscillator strength:

    velocity representation:             0.2074484017343380E-01

    length representation:               0.2871534134517531E-01

    mixed representation:                0.2440686720435986E-01


 Rotatory strength:

    velocity representation:              0.000000000000000    

    velocity rep. / 10^(-40)erg*cm^3:     0.000000000000000    

    length representation:                0.000000000000000    

    length rep. / 10^(-40)erg*cm^3:       0.000000000000000    


 Dominant contributions:

    occ. orbital  energy / eV   virt. orbital  energy / eV   |coeff.|^2*100
      16 a1        -11.09          19 a1          5.19           38.7
      16 a1        -11.09          18 a1          4.55           34.5
      16 a1        -11.09          20 a1          5.67            7.1
      16 a1        -11.09          17 a1          4.24            6.7
      13 b1        -13.52          15 b1          5.27            2.3
      13 b1        -13.52          17 b1          7.54            1.9
 

 Change of electron number:

            -0.000000


 Electric transition dipole moment (velocity rep.):

    x        0.000000        Norm:                  0.287074
    y        0.000000
    z       -0.287074        Norm / debye:          0.729674


 Electric transition dipole moment (length rep.):

    x        0.000000        Norm:                  0.337750
    y        0.000000
    z       -0.337750        Norm / debye:          0.858482


 Magnetic transition dipole moment / i:

    x        0.000000        Norm:                  0.000000
    y        0.000000
    z        0.000000        Norm / Bohr mag.:      0.000000


 Electric quadrupole transition moment:

   xx       -1.808992
   yy       -0.501723        1/3*trace:             0.446471
   zz        3.650129
   xy        0.000000
   xz        0.000000        Anisotropy:            4.937045
   yz        0.000000




                         7 singlet a1 excitation


 Total energy:                           -415.0888307666458    

 Excitation energy:                      0.3914206564542146    

 Excitation energy / eV:                  10.65110255189710    

 Excitation energy / nm:                  116.4050795702695    

 Excitation energy / cm^(-1):             85906.90402364034    


 Oscillator strength:

    velocity representation:             0.7422138532311504E-02

    length representation:               0.4794192379947399E-01

    mixed representation:                0.1886349914372246E-01


 Rotatory strength:

    velocity representation:              0.000000000000000    

    velocity rep. / 10^(-40)erg*cm^3:     0.000000000000000    

    length representation:                0.000000000000000    

    length rep. / 10^(-40)erg*cm^3:       0.000000000000000    


 Dominant contributions:

    occ. orbital  energy / eV   virt. orbital  energy / eV   |coeff.|^2*100
       1 b2        -15.99           4 b2          1.39           33.3
       2 b2        -13.04           5 b2          3.91           29.0
       2 a2         -8.91           4 a2          6.46           13.8
       2 a2         -8.91           5 a2          9.29            5.4
       1 a2        -12.44           4 a2          6.46            3.0
      16 a1        -11.09          18 a1          4.55            2.9
       1 a2        -12.44           3 a2          2.76            2.6
       2 b2        -13.04           4 b2          1.39            1.1
 

 Change of electron number:

            -0.000000


 Electric transition dipole moment (velocity rep.):

    x        0.000000        Norm:                  0.168651
    y        0.000000
    z       -0.168651        Norm / debye:          0.428671


 Electric transition dipole moment (length rep.):

    x        0.000000        Norm:                  0.428629
    y        0.000000
    z       -0.428629        Norm / debye:          1.089474


 Magnetic transition dipole moment / i:

    x        0.000000        Norm:                  0.000000
    y        0.000000
    z        0.000000        Norm / Bohr mag.:      0.000000


 Electric quadrupole transition moment:

   xx        0.807140
   yy        0.535817        1/3*trace:            -0.193267
   zz       -1.922756
   xy        0.000000
   xz        0.000000        Anisotropy:            2.604854
   yz        0.000000




                         8 singlet a1 excitation


 Total energy:                           -415.0794099388051    

 Excitation energy:                      0.4008414842948905    

 Excitation energy / eV:                  10.90745643051910    

 Excitation energy / nm:                  113.6692544189863    

 Excitation energy / cm^(-1):             87974.53673486096    


 Oscillator strength:

    velocity representation:             0.1099052899132531E-01

    length representation:               0.1841327779260432E-01

    mixed representation:                0.1422573946777264E-01


 Rotatory strength:

    velocity representation:              0.000000000000000    

    velocity rep. / 10^(-40)erg*cm^3:     0.000000000000000    

    length representation:                0.000000000000000    

    length rep. / 10^(-40)erg*cm^3:       0.000000000000000    


 Dominant contributions:

    occ. orbital  energy / eV   virt. orbital  energy / eV   |coeff.|^2*100
       2 a2         -8.91           4 a2          6.46           55.2
       1 a2        -12.44           3 a2          2.76           11.9
       1 b2        -15.99           4 b2          1.39            8.3
       2 b2        -13.04           4 b2          1.39            6.3
       2 b2        -13.04           5 b2          3.91            6.1
      16 a1        -11.09          18 a1          4.55            3.4
 

 Change of electron number:

             0.000000


 Electric transition dipole moment (velocity rep.):

    x        0.000000        Norm:                  0.202800
    y        0.000000
    z       -0.202800        Norm / debye:          0.515471


 Electric transition dipole moment (length rep.):

    x        0.000000        Norm:                  0.262497
    y        0.000000
    z       -0.262497        Norm / debye:          0.667207


 Magnetic transition dipole moment / i:

    x        0.000000        Norm:                  0.000000
    y        0.000000
    z        0.000000        Norm / Bohr mag.:      0.000000


 Electric quadrupole transition moment:

   xx        1.591183
   yy       -0.437493        1/3*trace:             0.274355
   zz       -0.330624
   xy        0.000000
   xz        0.000000        Anisotropy:            1.977408
   yz        0.000000




                         9 singlet a1 excitation


 Total energy:                           -415.0767258830271    

 Excitation energy:                      0.4035255400729039    

 Excitation energy / eV:                  10.98049333563700    

 Excitation energy / nm:                  112.9131817821697    

 Excitation energy / cm^(-1):             88563.61888551863    


 Oscillator strength:

    velocity representation:             0.1367777170423094    

    length representation:               0.1716294090371703    

    mixed representation:                0.1532157914362121    


 Rotatory strength:

    velocity representation:              0.000000000000000    

    velocity rep. / 10^(-40)erg*cm^3:     0.000000000000000    

    length representation:                0.000000000000000    

    length rep. / 10^(-40)erg*cm^3:       0.000000000000000    


 Dominant contributions:

    occ. orbital  energy / eV   virt. orbital  energy / eV   |coeff.|^2*100
      16 a1        -11.09          19 a1          5.19           33.6
      16 a1        -11.09          18 a1          4.55           30.6
      16 a1        -11.09          17 a1          4.24           11.7
      16 a1        -11.09          20 a1          5.67            8.1
       1 b2        -15.99           4 b2          1.39            2.7
       2 a2         -8.91           4 a2          6.46            2.1
      13 b1        -13.52          15 b1          5.27            1.5
 

 Change of electron number:

            -0.000000


 Electric transition dipole moment (velocity rep.):

    x        0.000000        Norm:                  0.713046
    y        0.000000
    z        0.713046        Norm / debye:          1.812397


 Electric transition dipole moment (length rep.):

    x        0.000000        Norm:                  0.798741
    y        0.000000
    z        0.798741        Norm / debye:          2.030212


 Magnetic transition dipole moment / i:

    x        0.000000        Norm:                  0.000000
    y        0.000000
    z        0.000000        Norm / Bohr mag.:      0.000000


 Electric quadrupole transition moment:

   xx        1.519622
   yy       -0.387314        1/3*trace:            -2.365543
   zz       -8.228936
   xy        0.000000
   xz        0.000000        Anisotropy:            8.948794
   yz        0.000000




                        10 singlet a1 excitation


 Total energy:                           -415.0472211537159    

 Excitation energy:                      0.4330302693841355    

 Excitation energy / eV:                  11.78335821381353    

 Excitation energy / nm:                  105.2197868864944    

 Excitation energy / cm^(-1):             95039.15845500465    


 Oscillator strength:

    velocity representation:             0.1394370117038896E-02

    length representation:               0.1261025351592079E-02

    mixed representation:                0.1326022649538258E-02


 Rotatory strength:

    velocity representation:              0.000000000000000    

    velocity rep. / 10^(-40)erg*cm^3:     0.000000000000000    

    length representation:                0.000000000000000    

    length rep. / 10^(-40)erg*cm^3:       0.000000000000000    


 Dominant contributions:

    occ. orbital  energy / eV   virt. orbital  energy / eV   |coeff.|^2*100
      16 a1        -11.09          17 a1          4.24           52.1
      16 a1        -11.09          18 a1          4.55           11.2
      16 a1        -11.09          20 a1          5.67            9.9
      15 a1        -14.27          17 a1          4.24            8.0
      16 a1        -11.09          19 a1          5.19            4.2
       2 b2        -13.04           5 b2          3.91            1.4
      10 b1        -16.94          14 b1          4.87            1.4
      12 b1        -14.27          14 b1          4.87            1.2
      13 b1        -13.52          14 b1          4.87            1.1
 

 Change of electron number:

             0.000000


 Electric transition dipole moment (velocity rep.):

    x        0.000000        Norm:                  0.069499
    y        0.000000
    z       -0.069499        Norm / debye:          0.176649


 Electric transition dipole moment (length rep.):

    x        0.000000        Norm:                  0.066092
    y        0.000000
    z        0.066092        Norm / debye:          0.167990


 Magnetic transition dipole moment / i:

    x        0.000000        Norm:                  0.000000
    y        0.000000
    z        0.000000        Norm / Bohr mag.:      0.000000


 Electric quadrupole transition moment:

   xx        4.524102
   yy        0.085391        1/3*trace:             0.505839
   zz       -3.091975
   xy        0.000000
   xz        0.000000        Anisotropy:            6.625799
   yz        0.000000



 ==============================================================================

                              I R R E P   a2  

 ==============================================================================


 Excitation is electric dipole forbidden

 Excitation is magnetic dipole allowed

 Excitation is electric quadrupole allowed




                         1 singlet a2 excitation


 Total energy:                           -415.2433679959719    

 Excitation energy:                      0.2368834271280504    

 Excitation energy / eV:                  6.445928781688706    

 Excitation energy / nm:                  192.3450416620751    

 Excitation energy / cm^(-1):             51989.90268787924    


 Oscillator strength:

    velocity representation:              0.000000000000000    

    length representation:                0.000000000000000    

    mixed representation:                 0.000000000000000    


 Rotatory strength:

    velocity representation:              0.000000000000000    

    velocity rep. / 10^(-40)erg*cm^3:     0.000000000000000    

    length representation:                0.000000000000000    

    length rep. / 10^(-40)erg*cm^3:       0.000000000000000    


 Dominant contributions:

    occ. orbital  energy / eV   virt. orbital  energy / eV   |coeff.|^2*100
      13 b1        -13.52           4 b2          1.39           59.2
      16 a1        -11.09           3 a2          2.76           13.6
      16 a1        -11.09           4 a2          6.46           10.2
      13 b1        -13.52           5 b2          3.91            9.6
 

 Change of electron number:

             0.000000


 Electric transition dipole moment (velocity rep.):

    x        0.000000        Norm:                  0.000000
    y        0.000000
    z        0.000000        Norm / debye:          0.000000


 Electric transition dipole moment (length rep.):

    x        0.000000        Norm:                  0.000000
    y        0.000000
    z        0.000000        Norm / debye:          0.000000


 Magnetic transition dipole moment / i:

    x        0.000000        Norm:                  0.004757
    y        0.000000
    z       -0.004757        Norm / Bohr mag.:      1.303748


 Electric quadrupole transition moment:

   xx        0.000000
   yy        0.000000        1/3*trace:             0.000000
   zz        0.000000
   xy       -1.308246
   xz        0.000000        Anisotropy:            2.265949
   yz        0.000000




                         2 singlet a2 excitation


 Total energy:                           -415.2083204104311    

 Excitation energy:                      0.2719310126688937    

 Excitation energy / eV:                  7.399622516642557    

 Excitation energy / nm:                  167.5548228678075    

 Excitation energy / cm^(-1):             59681.95858138248    


 Oscillator strength:

    velocity representation:              0.000000000000000    

    length representation:                0.000000000000000    

    mixed representation:                 0.000000000000000    


 Rotatory strength:

    velocity representation:              0.000000000000000    

    velocity rep. / 10^(-40)erg*cm^3:     0.000000000000000    

    length representation:                0.000000000000000    

    length rep. / 10^(-40)erg*cm^3:       0.000000000000000    


 Dominant contributions:

    occ. orbital  energy / eV   virt. orbital  energy / eV   |coeff.|^2*100
      16 a1        -11.09           3 a2          2.76           78.1
      13 b1        -13.52           4 b2          1.39           11.1
      13 b1        -13.52           5 b2          3.91            3.4
 

 Change of electron number:

             0.000000


 Electric transition dipole moment (velocity rep.):

    x        0.000000        Norm:                  0.000000
    y        0.000000
    z        0.000000        Norm / debye:          0.000000


 Electric transition dipole moment (length rep.):

    x        0.000000        Norm:                  0.000000
    y        0.000000
    z        0.000000        Norm / debye:          0.000000


 Magnetic transition dipole moment / i:

    x        0.000000        Norm:                  0.001880
    y        0.000000
    z        0.001880        Norm / Bohr mag.:      0.515192


 Electric quadrupole transition moment:

   xx        0.000000
   yy        0.000000        1/3*trace:             0.000000
   zz        0.000000
   xy        0.393074
   xz        0.000000        Anisotropy:            0.680824
   yz        0.000000




                         3 singlet a2 excitation


 Total energy:                           -415.1748945673318    

 Excitation energy:                      0.3053568557681782    

 Excitation energy / eV:                  8.309186375533447    

 Excitation energy / nm:                  149.2134589393039    

 Excitation energy / cm^(-1):             67018.08315143407    


 Oscillator strength:

    velocity representation:              0.000000000000000    

    length representation:                0.000000000000000    

    mixed representation:                 0.000000000000000    


 Rotatory strength:

    velocity representation:              0.000000000000000    

    velocity rep. / 10^(-40)erg*cm^3:     0.000000000000000    

    length representation:                0.000000000000000    

    length rep. / 10^(-40)erg*cm^3:       0.000000000000000    


 Dominant contributions:

    occ. orbital  energy / eV   virt. orbital  energy / eV   |coeff.|^2*100
       2 a2         -8.91          17 a1          4.24           82.2
       2 a2         -8.91          18 a1          4.55            3.7
       2 b2        -13.04          14 b1          4.87            2.9
       2 a2         -8.91          26 a1         11.86            1.7
 

 Change of electron number:

             0.000000


 Electric transition dipole moment (velocity rep.):

    x        0.000000        Norm:                  0.000000
    y        0.000000
    z        0.000000        Norm / debye:          0.000000


 Electric transition dipole moment (length rep.):

    x        0.000000        Norm:                  0.000000
    y        0.000000
    z        0.000000        Norm / debye:          0.000000


 Magnetic transition dipole moment / i:

    x        0.000000        Norm:                  0.001608
    y        0.000000
    z       -0.001608        Norm / Bohr mag.:      0.440786


 Electric quadrupole transition moment:

   xx        0.000000
   yy        0.000000        1/3*trace:             0.000000
   zz        0.000000
   xy       -1.127694
   xz        0.000000        Anisotropy:            1.953223
   yz        0.000000




                         4 singlet a2 excitation


 Total energy:                           -415.1543577739200    

 Excitation energy:                      0.3258936491800460    

 Excitation energy / eV:                  8.868021197125229    

 Excitation energy / nm:                  139.8104957695192    

 Excitation energy / cm^(-1):             71525.38830126596    


 Oscillator strength:

    velocity representation:              0.000000000000000    

    length representation:                0.000000000000000    

    mixed representation:                 0.000000000000000    


 Rotatory strength:

    velocity representation:              0.000000000000000    

    velocity rep. / 10^(-40)erg*cm^3:     0.000000000000000    

    length representation:                0.000000000000000    

    length rep. / 10^(-40)erg*cm^3:       0.000000000000000    


 Dominant contributions:

    occ. orbital  energy / eV   virt. orbital  energy / eV   |coeff.|^2*100
      12 b1        -14.27           4 b2          1.39           78.2
      11 b1        -16.30           5 b2          3.91            3.7
      11 b1        -16.30           4 b2          1.39            3.4
      14 a1        -16.56           4 a2          6.46            2.8
      10 b1        -16.94           4 b2          1.39            2.0
 

 Change of electron number:

             0.000000


 Electric transition dipole moment (velocity rep.):

    x        0.000000        Norm:                  0.000000
    y        0.000000
    z        0.000000        Norm / debye:          0.000000


 Electric transition dipole moment (length rep.):

    x        0.000000        Norm:                  0.000000
    y        0.000000
    z        0.000000        Norm / debye:          0.000000


 Magnetic transition dipole moment / i:

    x        0.000000        Norm:                  0.000374
    y        0.000000
    z       -0.000374        Norm / Bohr mag.:      0.102416


 Electric quadrupole transition moment:

   xx        0.000000
   yy        0.000000        1/3*trace:             0.000000
   zz        0.000000
   xy       -0.331950
   xz        0.000000        Anisotropy:            0.574954
   yz        0.000000




                         5 singlet a2 excitation


 Total energy:                           -415.1483467853513    

 Excitation energy:                      0.3319046377487096    

 Excitation energy / eV:                  9.031588588440474    

 Excitation energy / nm:                  137.2784453060182    

 Excitation energy / cm^(-1):             72844.64779751532    


 Oscillator strength:

    velocity representation:              0.000000000000000    

    length representation:                0.000000000000000    

    mixed representation:                 0.000000000000000    


 Rotatory strength:

    velocity representation:              0.000000000000000    

    velocity rep. / 10^(-40)erg*cm^3:     0.000000000000000    

    length representation:                0.000000000000000    

    length rep. / 10^(-40)erg*cm^3:       0.000000000000000    


 Dominant contributions:

    occ. orbital  energy / eV   virt. orbital  energy / eV   |coeff.|^2*100
       2 a2         -8.91          19 a1          5.19           72.3
       2 a2         -8.91          21 a1          7.07            7.5
       2 a2         -8.91          18 a1          4.55            7.3
       2 a2         -8.91          20 a1          5.67            6.6
 

 Change of electron number:

             0.000000


 Electric transition dipole moment (velocity rep.):

    x        0.000000        Norm:                  0.000000
    y        0.000000
    z        0.000000        Norm / debye:          0.000000


 Electric transition dipole moment (length rep.):

    x        0.000000        Norm:                  0.000000
    y        0.000000
    z        0.000000        Norm / debye:          0.000000


 Magnetic transition dipole moment / i:

    x        0.000000        Norm:                  0.001043
    y        0.000000
    z       -0.001043        Norm / Bohr mag.:      0.285934


 Electric quadrupole transition moment:

   xx        0.000000
   yy        0.000000        1/3*trace:             0.000000
   zz        0.000000
   xy       -0.918534
   xz        0.000000        Anisotropy:            1.590947
   yz        0.000000




                         6 singlet a2 excitation


 Total energy:                           -415.1188540864587    

 Excitation energy:                      0.3613973366412991    

 Excitation energy / eV:                  9.834126102129249    

 Excitation energy / nm:                  126.0755075935255    

 Excitation energy / cm^(-1):             79317.54699531270    


 Oscillator strength:

    velocity representation:              0.000000000000000    

    length representation:                0.000000000000000    

    mixed representation:                 0.000000000000000    


 Rotatory strength:

    velocity representation:              0.000000000000000    

    velocity rep. / 10^(-40)erg*cm^3:     0.000000000000000    

    length representation:                0.000000000000000    

    length rep. / 10^(-40)erg*cm^3:       0.000000000000000    


 Dominant contributions:

    occ. orbital  energy / eV   virt. orbital  energy / eV   |coeff.|^2*100
       2 a2         -8.91          18 a1          4.55           39.8
       3 b2         -9.09          14 b1          4.87           18.7
       3 b2         -9.09          15 b1          5.27           10.2
       2 a2         -8.91          20 a1          5.67            6.0
       2 a2         -8.91          21 a1          7.07            5.8
       1 a2        -12.44          18 a1          4.55            5.3
       2 a2         -8.91          17 a1          4.24            3.3
       2 b2        -13.04          15 b1          5.27            2.4
 

 Change of electron number:

             0.000000


 Electric transition dipole moment (velocity rep.):

    x        0.000000        Norm:                  0.000000
    y        0.000000
    z        0.000000        Norm / debye:          0.000000


 Electric transition dipole moment (length rep.):

    x        0.000000        Norm:                  0.000000
    y        0.000000
    z        0.000000        Norm / debye:          0.000000


 Magnetic transition dipole moment / i:

    x        0.000000        Norm:                  0.001747
    y        0.000000
    z        0.001747        Norm / Bohr mag.:      0.478751


 Electric quadrupole transition moment:

   xx        0.000000
   yy        0.000000        1/3*trace:             0.000000
   zz        0.000000
   xy        1.463915
   xz        0.000000        Anisotropy:            2.535576
   yz        0.000000




                         7 singlet a2 excitation


 Total energy:                           -415.1138450221615    

 Excitation energy:                      0.3664064009384824    

 Excitation energy / eV:                  9.970429735160906    

 Excitation energy / nm:                  124.3519560337862    

 Excitation energy / cm^(-1):             80416.90953208957    


 Oscillator strength:

    velocity representation:              0.000000000000000    

    length representation:                0.000000000000000    

    mixed representation:                 0.000000000000000    


 Rotatory strength:

    velocity representation:              0.000000000000000    

    velocity rep. / 10^(-40)erg*cm^3:     0.000000000000000    

    length representation:                0.000000000000000    

    length rep. / 10^(-40)erg*cm^3:       0.000000000000000    


 Dominant contributions:

    occ. orbital  energy / eV   virt. orbital  energy / eV   |coeff.|^2*100
       2 a2         -8.91          20 a1          5.67           66.0
       2 a2         -8.91          19 a1          5.19            7.8
      11 b1        -16.30           4 b2          1.39            4.5
       3 b2         -9.09          15 b1          5.27            3.8
      12 b1        -14.27           5 b2          3.91            3.3
       2 a2         -8.91          17 a1          4.24            2.0
       3 b2         -9.09          16 b1          5.55            2.0
       2 b2        -13.04          16 b1          5.55            1.9
 

 Change of electron number:

             0.000000


 Electric transition dipole moment (velocity rep.):

    x        0.000000        Norm:                  0.000000
    y        0.000000
    z        0.000000        Norm / debye:          0.000000


 Electric transition dipole moment (length rep.):

    x        0.000000        Norm:                  0.000000
    y        0.000000
    z        0.000000        Norm / debye:          0.000000


 Magnetic transition dipole moment / i:

    x        0.000000        Norm:                  0.000940
    y        0.000000
    z       -0.000940        Norm / Bohr mag.:      0.257654


 Electric quadrupole transition moment:

   xx        0.000000
   yy        0.000000        1/3*trace:             0.000000
   zz        0.000000
   xy       -0.728146
   xz        0.000000        Anisotropy:            1.261186
   yz        0.000000




                         8 singlet a2 excitation


 Total energy:                           -415.1098426439833    

 Excitation energy:                      0.3704087791166913    

 Excitation energy / eV:                  10.07934003339031    

 Excitation energy / nm:                  123.0082957770447    

 Excitation energy / cm^(-1):             81295.33000467371    


 Oscillator strength:

    velocity representation:              0.000000000000000    

    length representation:                0.000000000000000    

    mixed representation:                 0.000000000000000    


 Rotatory strength:

    velocity representation:              0.000000000000000    

    velocity rep. / 10^(-40)erg*cm^3:     0.000000000000000    

    length representation:                0.000000000000000    

    length rep. / 10^(-40)erg*cm^3:       0.000000000000000    


 Dominant contributions:

    occ. orbital  energy / eV   virt. orbital  energy / eV   |coeff.|^2*100
       3 b2         -9.09          14 b1          4.87           63.2
       2 a2         -8.91          18 a1          4.55           11.2
      12 b1        -14.27           5 b2          3.91            6.6
      11 b1        -16.30           4 b2          1.39            5.8
       2 a2         -8.91          20 a1          5.67            1.9
       3 b2         -9.09          15 b1          5.27            1.8
 

 Change of electron number:

             0.000000


 Electric transition dipole moment (velocity rep.):

    x        0.000000        Norm:                  0.000000
    y        0.000000
    z        0.000000        Norm / debye:          0.000000


 Electric transition dipole moment (length rep.):

    x        0.000000        Norm:                  0.000000
    y        0.000000
    z        0.000000        Norm / debye:          0.000000


 Magnetic transition dipole moment / i:

    x        0.000000        Norm:                  0.001195
    y        0.000000
    z        0.001195        Norm / Bohr mag.:      0.327405


 Electric quadrupole transition moment:

   xx        0.000000
   yy        0.000000        1/3*trace:             0.000000
   zz        0.000000
   xy        0.296911
   xz        0.000000        Anisotropy:            0.514265
   yz        0.000000




                         9 singlet a2 excitation


 Total energy:                           -415.1092424763759    

 Excitation energy:                      0.3710089467241326    

 Excitation energy / eV:                  10.09567143192480    

 Excitation energy / nm:                  122.8093097546758    

 Excitation energy / cm^(-1):             81427.05156867499    


 Oscillator strength:

    velocity representation:              0.000000000000000    

    length representation:                0.000000000000000    

    mixed representation:                 0.000000000000000    


 Rotatory strength:

    velocity representation:              0.000000000000000    

    velocity rep. / 10^(-40)erg*cm^3:     0.000000000000000    

    length representation:                0.000000000000000    

    length rep. / 10^(-40)erg*cm^3:       0.000000000000000    


 Dominant contributions:

    occ. orbital  energy / eV   virt. orbital  energy / eV   |coeff.|^2*100
      15 a1        -14.27           3 a2          2.76           40.8
      11 b1        -16.30           4 b2          1.39           14.2
      12 b1        -14.27           5 b2          3.91           13.6
       3 b2         -9.09          14 b1          4.87            4.9
      15 a1        -14.27           4 a2          6.46            4.2
      16 a1        -11.09           4 a2          6.46            3.8
       2 a2         -8.91          20 a1          5.67            2.3
      13 b1        -13.52           4 b2          1.39            1.7
       2 a2         -8.91          18 a1          4.55            1.1
      14 a1        -16.56           4 a2          6.46            1.0
       8 b1        -24.00           4 b2          1.39            0.9
      14 a1        -16.56           5 a2          9.29            0.7
      10 b1        -16.94           5 b2          3.91            0.6
       3 b2         -9.09          15 b1          5.27            0.6
 

 Change of electron number:

             0.000000


 Electric transition dipole moment (velocity rep.):

    x        0.000000        Norm:                  0.000000
    y        0.000000
    z        0.000000        Norm / debye:          0.000000


 Electric transition dipole moment (length rep.):

    x        0.000000        Norm:                  0.000000
    y        0.000000
    z        0.000000        Norm / debye:          0.000000


 Magnetic transition dipole moment / i:

    x        0.000000        Norm:                  0.001494
    y        0.000000
    z       -0.001494        Norm / Bohr mag.:      0.409593


 Electric quadrupole transition moment:

   xx        0.000000
   yy        0.000000        1/3*trace:             0.000000
   zz        0.000000
   xy       -0.088998
   xz        0.000000        Anisotropy:            0.154150
   yz        0.000000




                        10 singlet a2 excitation


 Total energy:                           -415.1063001927571    

 Excitation energy:                      0.3739512303428735    

 Excitation energy / eV:                  10.17573507711885    

 Excitation energy / nm:                  121.8430345000423    

 Excitation energy / cm^(-1):             82072.80817931279    


 Oscillator strength:

    velocity representation:              0.000000000000000    

    length representation:                0.000000000000000    

    mixed representation:                 0.000000000000000    


 Rotatory strength:

    velocity representation:              0.000000000000000    

    velocity rep. / 10^(-40)erg*cm^3:     0.000000000000000    

    length representation:                0.000000000000000    

    length rep. / 10^(-40)erg*cm^3:       0.000000000000000    


 Dominant contributions:

    occ. orbital  energy / eV   virt. orbital  energy / eV   |coeff.|^2*100
      15 a1        -14.27           3 a2          2.76           29.0
      12 b1        -14.27           5 b2          3.91           16.7
      11 b1        -16.30           4 b2          1.39           13.2
      10 b1        -16.94           4 b2          1.39            7.4
       3 b2         -9.09          14 b1          4.87            5.3
       2 a2         -8.91          18 a1          4.55            4.7
      16 a1        -11.09           4 a2          6.46            4.4
       2 a2         -8.91          20 a1          5.67            2.3
       2 a2         -8.91          19 a1          5.19            2.0
      14 a1        -16.56           3 a2          2.76            1.8
      15 a1        -14.27           4 a2          6.46            1.8
      13 a1        -17.63           4 a2          6.46            1.0
       1 a2        -12.44          18 a1          4.55            0.8
 

 Change of electron number:

             0.000000


 Electric transition dipole moment (velocity rep.):

    x        0.000000        Norm:                  0.000000
    y        0.000000
    z        0.000000        Norm / debye:          0.000000


 Electric transition dipole moment (length rep.):

    x        0.000000        Norm:                  0.000000
    y        0.000000
    z        0.000000        Norm / debye:          0.000000


 Magnetic transition dipole moment / i:

    x        0.000000        Norm:                  0.000954
    y        0.000000
    z        0.000954        Norm / Bohr mag.:      0.261538


 Electric quadrupole transition moment:

   xx        0.000000
   yy        0.000000        1/3*trace:             0.000000
   zz        0.000000
   xy        0.699367
   xz        0.000000        Anisotropy:            1.211339
   yz        0.000000



 ==============================================================================

                              I R R E P   b1  

 ==============================================================================


 Excitation is electric dipole allowed

 Excitation is magnetic dipole allowed

 Excitation is electric quadrupole allowed




                         1 singlet b1 excitation


 Total energy:                           -415.2893982113394    

 Excitation energy:                      0.1908532117605946    

 Excitation energy / eV:                  5.193382355534442    

 Excitation energy / nm:                  238.7350584236144    

 Excitation energy / cm^(-1):             41887.43816906539    


 Oscillator strength:

    velocity representation:             0.1018488609610766E-01

    length representation:               0.4395853661275725E-01

    mixed representation:                0.2115922230027632E-01


 Rotatory strength:

    velocity representation:              0.000000000000000    

    velocity rep. / 10^(-40)erg*cm^3:     0.000000000000000    

    length representation:                0.000000000000000    

    length rep. / 10^(-40)erg*cm^3:       0.000000000000000    


 Dominant contributions:

    occ. orbital  energy / eV   virt. orbital  energy / eV   |coeff.|^2*100
       2 a2         -8.91           4 b2          1.39           74.1
       3 b2         -9.09           3 a2          2.76           20.7
 

 Change of electron number:

             0.000000


 Electric transition dipole moment (velocity rep.):

    x        0.282927        Norm:                  0.282927
    y        0.000000
    z        0.000000        Norm / debye:          0.719133


 Electric transition dipole moment (length rep.):

    x       -0.587784        Norm:                  0.587784
    y        0.000000
    z        0.000000        Norm / debye:          1.494008


 Magnetic transition dipole moment / i:

    x        0.000000        Norm:                  0.000459
    y       -0.000459
    z        0.000000        Norm / Bohr mag.:      0.125666


 Electric quadrupole transition moment:

   xx        0.000000
   yy        0.000000        1/3*trace:             0.000000
   zz        0.000000
   xy        0.000000
   xz       -0.443761        Anisotropy:            0.768616
   yz        0.000000




                         2 singlet b1 excitation


 Total energy:                           -415.2199281939605    

 Excitation energy:                      0.2603232291395245    

 Excitation energy / eV:                  7.083758520369291    

 Excitation energy / nm:                  175.0260735878455    

 Excitation energy / cm^(-1):             57134.34457802863    


 Oscillator strength:

    velocity representation:             0.7163649729181759E-03

    length representation:               0.2621905255756584    

    mixed representation:                0.1370489360605943E-01


 Rotatory strength:

    velocity representation:              0.000000000000000    

    velocity rep. / 10^(-40)erg*cm^3:     0.000000000000000    

    length representation:                0.000000000000000    

    length rep. / 10^(-40)erg*cm^3:       0.000000000000000    


 Dominant contributions:

    occ. orbital  energy / eV   virt. orbital  energy / eV   |coeff.|^2*100
       3 b2         -9.09           3 a2          2.76           55.0
       2 a2         -8.91           4 b2          1.39           21.5
       2 a2         -8.91           5 b2          3.91           16.5
 

 Change of electron number:

             0.000000


 Electric transition dipole moment (velocity rep.):

    x        0.064248        Norm:                  0.064248
    y        0.000000
    z        0.000000        Norm / debye:          0.163302


 Electric transition dipole moment (length rep.):

    x       -1.229130        Norm:                  1.229130
    y        0.000000
    z        0.000000        Norm / debye:          3.124159


 Magnetic transition dipole moment / i:

    x        0.000000        Norm:                  0.001313
    y        0.001313
    z        0.000000        Norm / Bohr mag.:      0.359737


 Electric quadrupole transition moment:

   xx        0.000000
   yy        0.000000        1/3*trace:             0.000000
   zz        0.000000
   xy        0.000000
   xz        0.708938        Anisotropy:            1.227916
   yz        0.000000




                         3 singlet b1 excitation


 Total energy:                           -415.2115099923716    

 Excitation energy:                      0.2687414307284113    

 Excitation energy / eV:                  7.312829538843411    

 Excitation energy / nm:                  169.5434624147927    

 Excitation energy / cm^(-1):             58981.92626290770    


 Oscillator strength:

    velocity representation:             0.1709740932604484E-01

    length representation:               0.1335943943843544    

    mixed representation:                0.4779244756710387E-01


 Rotatory strength:

    velocity representation:              0.000000000000000    

    velocity rep. / 10^(-40)erg*cm^3:     0.000000000000000    

    length representation:                0.000000000000000    

    length rep. / 10^(-40)erg*cm^3:       0.000000000000000    


 Dominant contributions:

    occ. orbital  energy / eV   virt. orbital  energy / eV   |coeff.|^2*100
       2 a2         -8.91           5 b2          3.91           57.7
       1 a2        -12.44           4 b2          1.39           24.5
       3 b2         -9.09           3 a2          2.76            6.0
       2 b2        -13.04           3 a2          2.76            2.1
 

 Change of electron number:

             0.000000


 Electric transition dipole moment (velocity rep.):

    x       -0.308918        Norm:                  0.308918
    y        0.000000
    z        0.000000        Norm / debye:          0.785198


 Electric transition dipole moment (length rep.):

    x       -0.863520        Norm:                  0.863520
    y        0.000000
    z        0.000000        Norm / debye:          2.194866


 Magnetic transition dipole moment / i:

    x        0.000000        Norm:                  0.005044
    y       -0.005044
    z        0.000000        Norm / Bohr mag.:      1.382491


 Electric quadrupole transition moment:

   xx        0.000000
   yy        0.000000        1/3*trace:             0.000000
   zz        0.000000
   xy        0.000000
   xz       -2.529324        Anisotropy:            4.380917
   yz        0.000000




                         4 singlet b1 excitation


 Total energy:                           -415.1624271629932    

 Excitation energy:                      0.3178242601068133    

 Excitation energy / eV:                  8.648441854203623    

 Excitation energy / nm:                  143.3602099622201    

 Excitation energy / cm^(-1):             69754.36211444359    


 Oscillator strength:

    velocity representation:             0.1322889291980945E-01

    length representation:               0.5645296874020419    

    mixed representation:                0.8641818549758561E-01


 Rotatory strength:

    velocity representation:              0.000000000000000    

    velocity rep. / 10^(-40)erg*cm^3:     0.000000000000000    

    length representation:                0.000000000000000    

    length rep. / 10^(-40)erg*cm^3:       0.000000000000000    


 Dominant contributions:

    occ. orbital  energy / eV   virt. orbital  energy / eV   |coeff.|^2*100
       1 a2        -12.44           4 b2          1.39           59.2
       2 a2         -8.91           5 b2          3.91           20.1
       3 b2         -9.09           3 a2          2.76           11.6
 

 Change of electron number:

             0.000000


 Electric transition dipole moment (velocity rep.):

    x        0.249870        Norm:                  0.249870
    y        0.000000
    z        0.000000        Norm / debye:          0.635111


 Electric transition dipole moment (length rep.):

    x        1.632283        Norm:                  1.632283
    y        0.000000
    z        0.000000        Norm / debye:          4.148881


 Magnetic transition dipole moment / i:

    x        0.000000        Norm:                  0.000032
    y       -0.000032
    z        0.000000        Norm / Bohr mag.:      0.008891


 Electric quadrupole transition moment:

   xx        0.000000
   yy        0.000000        1/3*trace:             0.000000
   zz        0.000000
   xy        0.000000
   xz        0.282325        Anisotropy:            0.489001
   yz        0.000000




                         5 singlet b1 excitation


 Total energy:                           -415.1159690488029    

 Excitation energy:                      0.3642823742971373    

 Excitation energy / eV:                  9.912632004747628    

 Excitation energy / nm:                  125.0770168277067    

 Excitation energy / cm^(-1):             79950.73956938338    


 Oscillator strength:

    velocity representation:             0.1302368464713103E-02

    length representation:               0.1773063405103148E-04

    mixed representation:                0.1519599244782378E-03


 Rotatory strength:

    velocity representation:              0.000000000000000    

    velocity rep. / 10^(-40)erg*cm^3:     0.000000000000000    

    length representation:                0.000000000000000    

    length rep. / 10^(-40)erg*cm^3:       0.000000000000000    


 Dominant contributions:

    occ. orbital  energy / eV   virt. orbital  energy / eV   |coeff.|^2*100
       2 b2        -13.04           3 a2          2.76           45.5
       3 b2         -9.09           4 a2          6.46           41.9
       1 a2        -12.44           4 b2          1.39            4.6
 

 Change of electron number:

             0.000000


 Electric transition dipole moment (velocity rep.):

    x        0.073231        Norm:                  0.073231
    y        0.000000
    z        0.000000        Norm / debye:          0.186135


 Electric transition dipole moment (length rep.):

    x        0.008545        Norm:                  0.008545
    y        0.000000
    z        0.000000        Norm / debye:          0.021718


 Magnetic transition dipole moment / i:

    x        0.000000        Norm:                  0.000524
    y        0.000524
    z        0.000000        Norm / Bohr mag.:      0.143647


 Electric quadrupole transition moment:

   xx        0.000000
   yy        0.000000        1/3*trace:             0.000000
   zz        0.000000
   xy        0.000000
   xz        8.129536        Anisotropy:           14.080769
   yz        0.000000




                         6 singlet b1 excitation


 Total energy:                           -415.0771133190472    

 Excitation energy:                      0.4031381040528438    

 Excitation energy / eV:                  10.96995066060462    

 Excitation energy / nm:                  113.0216970361787    

 Excitation energy / cm^(-1):             88478.58650809606    


 Oscillator strength:

    velocity representation:             0.7167845979067627E-01

    length representation:               0.3426197100012958    

    mixed representation:                0.1567113687861255    


 Rotatory strength:

    velocity representation:              0.000000000000000    

    velocity rep. / 10^(-40)erg*cm^3:     0.000000000000000    

    length representation:                0.000000000000000    

    length rep. / 10^(-40)erg*cm^3:       0.000000000000000    


 Dominant contributions:

    occ. orbital  energy / eV   virt. orbital  energy / eV   |coeff.|^2*100
       1 a2        -12.44           5 b2          3.91           62.7
       2 b2        -13.04           3 a2          2.76           10.9
       3 b2         -9.09           4 a2          6.46            9.3
      16 a1        -11.09          15 b1          5.27            4.2
      16 a1        -11.09          14 b1          4.87            2.2
       1 a2        -12.44           4 b2          1.39            2.2
 

 Change of electron number:

             0.000000


 Electric transition dipole moment (velocity rep.):

    x       -0.516432        Norm:                  0.516432
    y        0.000000
    z        0.000000        Norm / debye:          1.312649


 Electric transition dipole moment (length rep.):

    x       -1.129080        Norm:                  1.129080
    y        0.000000
    z        0.000000        Norm / debye:          2.869858


 Magnetic transition dipole moment / i:

    x        0.000000        Norm:                  0.000096
    y        0.000096
    z        0.000000        Norm / Bohr mag.:      0.026447


 Electric quadrupole transition moment:

   xx        0.000000
   yy        0.000000        1/3*trace:             0.000000
   zz        0.000000
   xy        0.000000
   xz        0.189434        Anisotropy:            0.328109
   yz        0.000000




                         7 singlet b1 excitation


 Total energy:                           -415.0723016185280    

 Excitation energy:                      0.4079498045720014    

 Excitation energy / eV:                  11.10088374968281    

 Excitation energy / nm:                  111.6886247998147    

 Excitation energy / cm^(-1):             89534.63270257718    


 Oscillator strength:

    velocity representation:             0.3602027525682362E-01

    length representation:               0.6763285247714614E-01

    mixed representation:                0.4935741041253025E-01


 Rotatory strength:

    velocity representation:              0.000000000000000    

    velocity rep. / 10^(-40)erg*cm^3:     0.000000000000000    

    length representation:                0.000000000000000    

    length rep. / 10^(-40)erg*cm^3:       0.000000000000000    


 Dominant contributions:

    occ. orbital  energy / eV   virt. orbital  energy / eV   |coeff.|^2*100
       3 b2         -9.09           4 a2          6.46           38.5
       2 b2        -13.04           3 a2          2.76           30.7
       1 a2        -12.44           5 b2          3.91            9.7
      16 a1        -11.09          15 b1          5.27            4.6
      16 a1        -11.09          14 b1          4.87            3.6
       1 a2        -12.44           4 b2          1.39            2.4
       2 b2        -13.04           4 a2          6.46            1.5
 

 Change of electron number:

             0.000000


 Electric transition dipole moment (velocity rep.):

    x        0.363928        Norm:                  0.363928
    y        0.000000
    z        0.000000        Norm / debye:          0.925020


 Electric transition dipole moment (length rep.):

    x        0.498679        Norm:                  0.498679
    y        0.000000
    z        0.000000        Norm / debye:          1.267525


 Magnetic transition dipole moment / i:

    x        0.000000        Norm:                  0.000746
    y       -0.000746
    z        0.000000        Norm / Bohr mag.:      0.204513


 Electric quadrupole transition moment:

   xx        0.000000
   yy        0.000000        1/3*trace:             0.000000
   zz        0.000000
   xy        0.000000
   xz       -0.453959        Anisotropy:            0.786280
   yz        0.000000




                         8 singlet b1 excitation


 Total energy:                           -415.0691083318542    

 Excitation energy:                      0.4111430912457846    

 Excitation energy / eV:                  11.18777753844750    

 Excitation energy / nm:                  110.8211560163657    

 Excitation energy / cm^(-1):             90235.47811602498    


 Oscillator strength:

    velocity representation:             0.8574646022232920E-02

    length representation:               0.3667490256708620E-02

    mixed representation:                0.5607800882811778E-02


 Rotatory strength:

    velocity representation:              0.000000000000000    

    velocity rep. / 10^(-40)erg*cm^3:     0.000000000000000    

    length representation:                0.000000000000000    

    length rep. / 10^(-40)erg*cm^3:       0.000000000000000    


 Dominant contributions:

    occ. orbital  energy / eV   virt. orbital  energy / eV   |coeff.|^2*100
      16 a1        -11.09          15 b1          5.27           36.4
      16 a1        -11.09          14 b1          4.87           17.2
       1 a2        -12.44           5 b2          3.91           16.7
      13 b1        -13.52          18 a1          4.55            7.9
      13 b1        -13.52          19 a1          5.19            4.6
      16 a1        -11.09          17 b1          7.54            3.2
      13 b1        -13.52          17 a1          4.24            1.6
       3 b2         -9.09           4 a2          6.46            1.5
       2 b2        -13.04           3 a2          2.76            1.1
 

 Change of electron number:

             0.000000


 Electric transition dipole moment (velocity rep.):

    x        0.176871        Norm:                  0.176871
    y        0.000000
    z        0.000000        Norm / debye:          0.449565


 Electric transition dipole moment (length rep.):

    x       -0.115673        Norm:                  0.115673
    y        0.000000
    z        0.000000        Norm / debye:          0.294015


 Magnetic transition dipole moment / i:

    x        0.000000        Norm:                  0.002662
    y        0.002662
    z        0.000000        Norm / Bohr mag.:      0.729695


 Electric quadrupole transition moment:

   xx        0.000000
   yy        0.000000        1/3*trace:             0.000000
   zz        0.000000
   xy        0.000000
   xz        1.765511        Anisotropy:            3.057954
   yz        0.000000




                         9 singlet b1 excitation


 Total energy:                           -415.0448476753505    

 Excitation energy:                      0.4354037477495286    

 Excitation energy / eV:                  11.84794387391517    

 Excitation energy / nm:                  104.6462114658023    

 Excitation energy / cm^(-1):             95560.07674272376    


 Oscillator strength:

    velocity representation:             0.2746712187996522    

    length representation:               0.2820606001205304    

    mixed representation:                0.2783413889641054    


 Rotatory strength:

    velocity representation:              0.000000000000000    

    velocity rep. / 10^(-40)erg*cm^3:     0.000000000000000    

    length representation:                0.000000000000000    

[...]

    x        0.000000        Norm:                  0.306124
    y       -0.306124
    z        0.000000        Norm / debye:          0.778094


 Electric transition dipole moment (length rep.):

    x        0.000000        Norm:                  0.344648
    y       -0.344648
    z        0.000000        Norm / debye:          0.876014


 Magnetic transition dipole moment / i:

    x        0.002072        Norm:                  0.002072
    y        0.000000
    z        0.000000        Norm / Bohr mag.:      0.567856


 Electric quadrupole transition moment:

   xx        0.000000
   yy        0.000000        1/3*trace:             0.000000
   zz        0.000000
   xy        0.000000
   xz        0.000000        Anisotropy:            2.382982
   yz       -1.375815




                         3 singlet b2 excitation


 Total energy:                           -415.1580834213526    

 Excitation energy:                      0.3221680017474452    

 Excitation energy / eV:                  8.766641128846985    

 Excitation energy / nm:                  141.4273062900832    

 Excitation energy / cm^(-1):             70707.70320687749    


 Oscillator strength:

    velocity representation:             0.5986297334553558E-03

    length representation:               0.1087644563334550E-02

    mixed representation:                0.8069054312886539E-03


 Rotatory strength:

    velocity representation:              0.000000000000000    

    velocity rep. / 10^(-40)erg*cm^3:     0.000000000000000    

    length representation:                0.000000000000000    

    length rep. / 10^(-40)erg*cm^3:       0.000000000000000    


 Dominant contributions:

    occ. orbital  energy / eV   virt. orbital  energy / eV   |coeff.|^2*100
      16 a1        -11.09           5 b2          3.91           43.4
      15 a1        -14.27           4 b2          1.39           22.8
      16 a1        -11.09           4 b2          1.39            8.1
       3 b2         -9.09          17 a1          4.24            8.0
      15 a1        -14.27           5 b2          3.91            7.0
       2 a2         -8.91          14 b1          4.87            2.2
 

 Change of electron number:

             0.000000


 Electric transition dipole moment (velocity rep.):

    x        0.000000        Norm:                  0.052794
    y        0.052794
    z        0.000000        Norm / debye:          0.134190


 Electric transition dipole moment (length rep.):

    x        0.000000        Norm:                  0.071162
    y        0.071162
    z        0.000000        Norm / debye:          0.180877


 Magnetic transition dipole moment / i:

    x       -0.000755        Norm:                  0.000755
    y        0.000000
    z        0.000000        Norm / Bohr mag.:      0.206819


 Electric quadrupole transition moment:

   xx        0.000000
   yy        0.000000        1/3*trace:             0.000000
   zz        0.000000
   xy        0.000000
   xz        0.000000        Anisotropy:            0.295773
   yz       -0.170764




                         4 singlet b2 excitation


 Total energy:                           -415.1535543858984    

 Excitation energy:                      0.3266970372015734    

 Excitation energy / eV:                  8.889882506857242    

 Excitation energy / nm:                  139.4666846393444    

 Excitation energy / cm^(-1):             71701.71159059949    


 Oscillator strength:

    velocity representation:             0.1808564379641651E-02

    length representation:               0.2104045549814226E-02

    mixed representation:                0.1950718286820919E-02


 Rotatory strength:

    velocity representation:              0.000000000000000    

    velocity rep. / 10^(-40)erg*cm^3:     0.000000000000000    

    length representation:                0.000000000000000    

    length rep. / 10^(-40)erg*cm^3:       0.000000000000000    


 Dominant contributions:

    occ. orbital  energy / eV   virt. orbital  energy / eV   |coeff.|^2*100
       3 b2         -9.09          19 a1          5.19           55.4
       3 b2         -9.09          18 a1          4.55           20.7
       3 b2         -9.09          20 a1          5.67           10.6
       2 a2         -8.91          14 b1          4.87            3.4
 

 Change of electron number:

             0.000000


 Electric transition dipole moment (velocity rep.):

    x        0.000000        Norm:                  0.091126
    y       -0.091126
    z        0.000000        Norm / debye:          0.231620


 Electric transition dipole moment (length rep.):

    x        0.000000        Norm:                  0.098288
    y       -0.098288
    z        0.000000        Norm / debye:          0.249825


 Magnetic transition dipole moment / i:

    x       -0.002803        Norm:                  0.002803
    y        0.000000
    z        0.000000        Norm / Bohr mag.:      0.768212


 Electric quadrupole transition moment:

   xx        0.000000
   yy        0.000000        1/3*trace:             0.000000
   zz        0.000000
   xy        0.000000
   xz        0.000000        Anisotropy:            2.590096
   yz        1.495393




                         5 singlet b2 excitation


 Total energy:                           -415.1405157979406    

 Excitation energy:                      0.3397356251593935    

 Excitation energy / eV:                  9.244680689274876    

 Excitation energy / nm:                  134.1141443103680    

 Excitation energy / cm^(-1):             74563.35086749152    


 Oscillator strength:

    velocity representation:             0.2371743536734835E-03

    length representation:               0.5343487968536339E-03

    mixed representation:                0.3559969529784829E-03


 Rotatory strength:

    velocity representation:              0.000000000000000    

    velocity rep. / 10^(-40)erg*cm^3:     0.000000000000000    

    length representation:                0.000000000000000    

    length rep. / 10^(-40)erg*cm^3:       0.000000000000000    


 Dominant contributions:

    occ. orbital  energy / eV   virt. orbital  energy / eV   |coeff.|^2*100
       2 a2         -8.91          14 b1          4.87           47.4
       3 b2         -9.09          17 a1          4.24           30.2
       3 b2         -9.09          19 a1          5.19            9.7
       2 a2         -8.91          16 b1          5.55            2.8
       2 b2        -13.04          20 a1          5.67            1.8
 

 Change of electron number:

             0.000000


 Electric transition dipole moment (velocity rep.):

    x        0.000000        Norm:                  0.032360
    y        0.032360
    z        0.000000        Norm / debye:          0.082252


 Electric transition dipole moment (length rep.):

    x        0.000000        Norm:                  0.048572
    y        0.048572
    z        0.000000        Norm / debye:          0.123459


 Magnetic transition dipole moment / i:

    x       -0.000357        Norm:                  0.000357
    y        0.000000
    z        0.000000        Norm / Bohr mag.:      0.097821


 Electric quadrupole transition moment:

   xx        0.000000
   yy        0.000000        1/3*trace:             0.000000
   zz        0.000000
   xy        0.000000
   xz        0.000000        Anisotropy:            1.159837
   yz        0.669632




                         6 singlet b2 excitation


 Total energy:                           -415.1329925905514    

 Excitation energy:                      0.3472588325486126    

 Excitation energy / eV:                  9.449397666011988    

 Excitation energy / nm:                  131.2086213202989    

 Excitation energy / cm^(-1):             76214.50403091988    


 Oscillator strength:

    velocity representation:             0.4627520043715671E-02

    length representation:               0.7301810268270419E-02

    mixed representation:                0.5812854150228634E-02


 Rotatory strength:

    velocity representation:              0.000000000000000    

    velocity rep. / 10^(-40)erg*cm^3:     0.000000000000000    

    length representation:                0.000000000000000    

    length rep. / 10^(-40)erg*cm^3:       0.000000000000000    


 Dominant contributions:

    occ. orbital  energy / eV   virt. orbital  energy / eV   |coeff.|^2*100
       3 b2         -9.09          18 a1          4.55           61.8
       3 b2         -9.09          19 a1          5.19           13.2
       2 a2         -8.91          14 b1          4.87            6.7
       2 b2        -13.04          18 a1          4.55            3.1
       3 b2         -9.09          20 a1          5.67            2.4
       2 a2         -8.91          16 b1          5.55            2.2
       2 a2         -8.91          15 b1          5.27            2.0
 

 Change of electron number:

             0.000000


 Electric transition dipole moment (velocity rep.):

    x        0.000000        Norm:                  0.141382
    y       -0.141382
    z        0.000000        Norm / debye:          0.359359


 Electric transition dipole moment (length rep.):

    x        0.000000        Norm:                  0.177596
    y       -0.177596
    z        0.000000        Norm / debye:          0.451409


 Magnetic transition dipole moment / i:

    x       -0.001477        Norm:                  0.001477
    y        0.000000
    z        0.000000        Norm / Bohr mag.:      0.404897


 Electric quadrupole transition moment:

   xx        0.000000
   yy        0.000000        1/3*trace:             0.000000
   zz        0.000000
   xy        0.000000
   xz        0.000000        Anisotropy:            2.436317
   yz        1.406608




                         7 singlet b2 excitation


 Total energy:                           -415.1221726858562    

 Excitation energy:                      0.3580787372438125    

 Excitation energy / eV:                  9.743822379194715    

 Excitation energy / nm:                  127.2439492238723    

 Excitation energy / cm^(-1):             78589.19861810807    


 Oscillator strength:

    velocity representation:             0.4878907510313837E-05

    length representation:               0.1107582963101154E-03

    mixed representation:                0.2324606383233487E-04


 Rotatory strength:

    velocity representation:              0.000000000000000    

    velocity rep. / 10^(-40)erg*cm^3:     0.000000000000000    

    length representation:                0.000000000000000    

    length rep. / 10^(-40)erg*cm^3:       0.000000000000000    


 Dominant contributions:

    occ. orbital  energy / eV   virt. orbital  energy / eV   |coeff.|^2*100
      15 a1        -14.27           4 b2          1.39           40.6
      16 a1        -11.09           5 b2          3.91           22.3
      13 b1        -13.52           3 a2          2.76           16.8
      15 a1        -14.27           5 b2          3.91            5.9
      14 a1        -16.56           5 b2          3.91            2.4
      14 a1        -16.56           4 b2          1.39            2.3
 

 Change of electron number:

             0.000000


 Electric transition dipole moment (velocity rep.):

    x        0.000000        Norm:                  0.004521
    y        0.004521
    z        0.000000        Norm / debye:          0.011491


 Electric transition dipole moment (length rep.):

    x        0.000000        Norm:                  0.021540
    y        0.021540
    z        0.000000        Norm / debye:          0.054749


 Magnetic transition dipole moment / i:

    x        0.000201        Norm:                  0.000201
    y        0.000000
    z        0.000000        Norm / Bohr mag.:      0.055014


 Electric quadrupole transition moment:

   xx        0.000000
   yy        0.000000        1/3*trace:             0.000000
   zz        0.000000
   xy        0.000000
   xz        0.000000        Anisotropy:            0.339960
   yz        0.196276




                         8 singlet b2 excitation


 Total energy:                           -415.1081997147187    

 Excitation energy:                      0.3720517083813217    

 Excitation energy / eV:                  10.12404643248946    

 Excitation energy / nm:                  122.4651080309014    

 Excitation energy / cm^(-1):             81655.91129829468    


 Oscillator strength:

    velocity representation:             0.3316562064191424E-05

    length representation:               0.1185297100044287E-03

    mixed representation:                0.1982703053107799E-04


 Rotatory strength:

    velocity representation:              0.000000000000000    

    velocity rep. / 10^(-40)erg*cm^3:     0.000000000000000    

    length representation:                0.000000000000000    

    length rep. / 10^(-40)erg*cm^3:       0.000000000000000    


 Dominant contributions:

    occ. orbital  energy / eV   virt. orbital  energy / eV   |coeff.|^2*100
      13 b1        -13.52           3 a2          2.76           70.9
      15 a1        -14.27           4 b2          1.39            6.7
      16 a1        -11.09           5 b2          3.91            5.5
       2 a2         -8.91          16 b1          5.55            3.1
      13 b1        -13.52           4 a2          6.46            2.6
      16 a1        -11.09           4 b2          1.39            2.6
 

 Change of electron number:

             0.000000


 Electric transition dipole moment (velocity rep.):

    x        0.000000        Norm:                  0.003657
    y        0.003657
    z        0.000000        Norm / debye:          0.009294


 Electric transition dipole moment (length rep.):

    x        0.000000        Norm:                  0.021860
    y        0.021860
    z        0.000000        Norm / debye:          0.055564


 Magnetic transition dipole moment / i:

    x       -0.001625        Norm:                  0.001625
    y        0.000000
    z        0.000000        Norm / Bohr mag.:      0.445280


 Electric quadrupole transition moment:

   xx        0.000000
   yy        0.000000        1/3*trace:             0.000000
   zz        0.000000
   xy        0.000000
   xz        0.000000        Anisotropy:            0.070308
   yz        0.040592




                         9 singlet b2 excitation


 Total energy:                           -415.1064931477607    

 Excitation energy:                      0.3737582753392857    

 Excitation energy / eV:                  10.17048450207325    

 Excitation energy / nm:                  121.9059367144154    

 Excitation energy / cm^(-1):             82030.45945115866    


 Oscillator strength:

    velocity representation:             0.3994360417247452E-02

    length representation:               0.1157175158597867E-02

    mixed representation:                0.2149924335720996E-02


 Rotatory strength:

    velocity representation:              0.000000000000000    

    velocity rep. / 10^(-40)erg*cm^3:     0.000000000000000    

    length representation:                0.000000000000000    

    length rep. / 10^(-40)erg*cm^3:       0.000000000000000    


 Dominant contributions:

    occ. orbital  energy / eV   virt. orbital  energy / eV   |coeff.|^2*100
       2 a2         -8.91          16 b1          5.55           48.6
      12 b1        -14.27           3 a2          2.76           16.6
       2 a2         -8.91          15 b1          5.27            6.9
       3 b2         -9.09          17 a1          4.24            4.7
       3 b2         -9.09          20 a1          5.67            3.4
      15 a1        -14.27           4 b2          1.39            2.8
      14 a1        -16.56           4 b2          1.39            2.3
      12 b1        -14.27           4 a2          6.46            1.7
      16 a1        -11.09           5 b2          3.91            1.4
       2 a2         -8.91          18 b1          8.90            1.2
      13 b1        -13.52           3 a2          2.76            1.0
 

 Change of electron number:

             0.000000


 Electric transition dipole moment (velocity rep.):

    x        0.000000        Norm:                  0.126612
    y        0.126612
    z        0.000000        Norm / debye:          0.321817


 Electric transition dipole moment (length rep.):

    x        0.000000        Norm:                  0.068147
    y        0.068147
    z        0.000000        Norm / debye:          0.173215


 Magnetic transition dipole moment / i:

    x        0.000001        Norm:                  0.000001
    y        0.000000
    z        0.000000        Norm / Bohr mag.:      0.000180


 Electric quadrupole transition moment:

   xx        0.000000
   yy        0.000000        1/3*trace:             0.000000
   zz        0.000000
   xy        0.000000
   xz        0.000000        Anisotropy:            0.430550
   yz        0.248578




                        10 singlet b2 excitation


 Total energy:                           -415.1030988937716    

 Excitation energy:                      0.3771525293284090    

 Excitation energy / eV:                  10.26284689207288    

 Excitation energy / nm:                  120.8088216752360    

 Excitation energy / cm^(-1):             82775.41209192350    


 Oscillator strength:

    velocity representation:             0.1180466458230013E-02

    length representation:               0.3251663271839213E-03

    mixed representation:                0.6195546324469417E-03


 Rotatory strength:

    velocity representation:              0.000000000000000    

    velocity rep. / 10^(-40)erg*cm^3:     0.000000000000000    

    length representation:                0.000000000000000    

    length rep. / 10^(-40)erg*cm^3:       0.000000000000000    


 Dominant contributions:

    occ. orbital  energy / eV   virt. orbital  energy / eV   |coeff.|^2*100
      12 b1        -14.27           3 a2          2.76           50.5
       2 a2         -8.91          16 b1          5.55           17.5
      14 a1        -16.56           4 b2          1.39            8.1
      12 b1        -14.27           4 a2          6.46            5.3
       2 a2         -8.91          15 b1          5.27            3.5
      11 b1        -16.30           4 a2          6.46            1.9
      13 b1        -13.52           3 a2          2.76            1.1
      13 a1        -17.63           4 b2          1.39            1.1
       2 a2         -8.91          18 b1          8.90            0.8
      12 b1        -14.27           8 a2         14.12            0.6
 

 Change of electron number:

             0.000000


 Electric transition dipole moment (velocity rep.):

    x        0.000000        Norm:                  0.068519
    y        0.068519
    z        0.000000        Norm / debye:          0.174160


 Electric transition dipole moment (length rep.):

    x        0.000000        Norm:                  0.035962
    y        0.035962
    z        0.000000        Norm / debye:          0.091406


 Magnetic transition dipole moment / i:

    x       -0.004358        Norm:                  0.004358
    y        0.000000
    z        0.000000        Norm / Bohr mag.:      1.194390


 Electric quadrupole transition moment:

   xx        0.000000
   yy        0.000000        1/3*trace:             0.000000
   zz        0.000000
   xy        0.000000
   xz        0.000000        Anisotropy:            1.633776
   yz        0.943261


    ------------------------------------------------------------------------
         total  cpu-time :  1 hours  6 minutes and 34 seconds
         total wall-time :  1 hours  6 minutes and 35 seconds
    ------------------------------------------------------------------------


   ****  escf : all done  ****


    2024-02-12 14:13:18.697 

