 DBCSR| CPU Multiplication driver                                           XSMM (U)
 DBCSR| Multrec recursion limit                                              512 (U)
 DBCSR| Multiplication stack size                                           1000 (D)
 DBCSR| Maximum elements for images                                    UNLIMITED (U)
 DBCSR| Multiplicative factor virtual images                                   1 (U)
 DBCSR| Use multiplication densification                                       T (D)
 DBCSR| Multiplication size stacks                                             3 (U)
 DBCSR| Use memory pool for CPU allocation                                     F (U)
 DBCSR| Number of 3D layers                                               SINGLE (U)
 DBCSR| Use MPI memory allocation                                              F (U)
 DBCSR| Use RMA algorithm                                                      F (U)
 DBCSR| Use Communication thread                                               T (U)
 DBCSR| Communication thread load                                             87 (D)
 DBCSR| MPI: My process id                                                     0
 DBCSR| MPI: Number of processes                                             128
 DBCSR| OMP: Current number of threads                                         1
 DBCSR| OMP: Max number of threads                                             1
 DBCSR| Split modifier for TAS multiplication algorithm                  1.0E+00 (U)


  **** **** ******  **  PROGRAM STARTED AT               2024-02-01 09:03:24.600
 ***** ** ***  *** **   PROGRAM STARTED ON                           nesh-clk464
 **    ****   ******    PROGRAM STARTED BY                              suphc355
 ***** **    ** ** **   PROGRAM PROCESS ID                                128585
  **** **  *******  **  PROGRAM STARTED IN /gxfs_work/cau/suphc355/homologes/CH2
                                           X/AE/S

 CP2K| version string:                 CP2K version 2024.1 (Development Version)
 CP2K| source code revision number:                                  git:b6f9133
 CP2K| cp2kflags: omp libint fftw3 libxc libgrpp parallel mpi_f08 scalapack cosm
 CP2K|            a xsmm spglib mkl
 CP2K| is freely available from                            https://www.cp2k.org/
 CP2K| Program compiled at                          Fr 26. Jan 09:14:30 CET 2024
 CP2K| Program compiled on                                           nesh-login3
 CP2K| Program compiled for                                                local
 CP2K| Data directory path            /gxfs_home/cau/suphc355/software/cp2k/data
 CP2K| Input file name                                                    AE.inp
 
 GLOBAL| Force Environment number                                              1
 GLOBAL| Basis set file name                                 ../../../basis_zora
 GLOBAL| Potential file name                                           POTENTIAL
 GLOBAL| MM Potential file name                                     MM_POTENTIAL
 GLOBAL| Coordinate file name                                            opt.xyz
 GLOBAL| Method name                                                        CP2K
 GLOBAL| Project name                                                    CH2S_AE
 GLOBAL| Run type                                                         ENERGY
 GLOBAL| FFT library                                                       FFTW3
 GLOBAL| Diagonalization library                                       ScaLAPACK
 GLOBAL| DGEMM library                                                      BLAS
 GLOBAL| Orthonormality check for eigenvectors                          DISABLED
 GLOBAL| Matrix multiplication library                                     COSMA
 GLOBAL| All-to-all communication in single precision                          F
 GLOBAL| FFTs using library dependent lengths                                  F
 GLOBAL| Grid backend                                                       AUTO
 GLOBAL| Global print level                                               MEDIUM
 GLOBAL| MPI I/O enabled                                                       T
 GLOBAL| Total number of message passing processes                           128
 GLOBAL| Number of threads for this process                                    1
 GLOBAL| This output is from process                                           0
 GLOBAL| Stack size for threads created by OpenMP (OMP_STACKSIZE)        default
 GLOBAL| CPU model name                Intel(R) Xeon(R) Gold 6226R CPU @ 2.90GHz
 GLOBAL| CPUID                                                              1003

 MEMORY| system memory details [Kb]
 MEMORY|                        rank 0           min           max       average
 MEMORY| MemTotal            196683224     196680392     196683224     196682516
 MEMORY| MemFree             177003384     177003384     177395308     177227675
 MEMORY| Buffers                143392         84124        237632        149271
 MEMORY| Cached                 553924        312944        553924        485055
 MEMORY| Slab                   745656        578856        924156        768607
 MEMORY| SReclaimable           120964        103076        148300        125122
 MEMORY| MemLikelyFree       177821664     177821664     178201724     177987123


 *** Fundamental physical constants (SI units) ***

 *** Literature: B. J. Mohr and B. N. Taylor,
 ***             CODATA recommended values of the fundamental physical
 ***             constants: 2006, Web Version 5.1
 ***             http://physics.nist.gov/constants

 Speed of light in vacuum [m/s]                             2.99792458000000E+08
 Magnetic constant or permeability of vacuum [N/A**2]       1.25663706143592E-06
 Electric constant or permittivity of vacuum [F/m]          8.85418781762039E-12
 Planck constant (h) [J*s]                                  6.62606896000000E-34
 Planck constant (h-bar) [J*s]                              1.05457162825177E-34
 Elementary charge [C]                                      1.60217648700000E-19
 Electron mass [kg]                                         9.10938215000000E-31
 Electron g factor [ ]                                     -2.00231930436220E+00
 Proton mass [kg]                                           1.67262163700000E-27
 Fine-structure constant                                    7.29735253760000E-03
 Rydberg constant [1/m]                                     1.09737315685270E+07
 Avogadro constant [1/mol]                                  6.02214179000000E+23
 Boltzmann constant [J/K]                                   1.38065040000000E-23
 Atomic mass unit [kg]                                      1.66053878200000E-27
 Bohr radius [m]                                            5.29177208590000E-11

 *** Conversion factors ***

 [u] -> [a.u.]                                              1.82288848426455E+03
 [Angstrom] -> [Bohr] = [a.u.]                              1.88972613288564E+00
 [a.u.] = [Bohr] -> [Angstrom]                              5.29177208590000E-01
 [a.u.] -> [s]                                              2.41888432650478E-17
 [a.u.] -> [fs]                                             2.41888432650478E-02
 [a.u.] -> [J]                                              4.35974393937059E-18
 [a.u.] -> [N]                                              8.23872205491840E-08
 [a.u.] -> [K]                                              3.15774647902944E+05
 [a.u.] -> [kJ/mol]                                         2.62549961709828E+03
 [a.u.] -> [kcal/mol]                                       6.27509468713739E+02
 [a.u.] -> [Pa]                                             2.94210107994716E+13
 [a.u.] -> [bar]                                            2.94210107994716E+08
 [a.u.] -> [atm]                                            2.90362800883016E+08
 [a.u.] -> [eV]                                             2.72113838565563E+01
 [a.u.] -> [Hz]                                             6.57968392072181E+15
 [a.u.] -> [1/cm] (wave numbers)                            2.19474631370540E+05
 [a.u./Bohr**2] -> [1/cm]                                   5.14048714338585E+03
 

 CELL_TOP| Volume [angstrom^3]:                                      8000.000000
 CELL_TOP| Vector a [angstrom    20.000     0.000     0.000   |a| =    20.000000
 CELL_TOP| Vector b [angstrom     0.000    20.000     0.000   |b| =    20.000000
 CELL_TOP| Vector c [angstrom     0.000     0.000    20.000   |c| =    20.000000
 CELL_TOP| Angle (b,c), alpha [degree]:                                90.000000
 CELL_TOP| Angle (a,c), beta  [degree]:                                90.000000
 CELL_TOP| Angle (a,b), gamma [degree]:                                90.000000
 CELL_TOP| Numerically orthorhombic:                                         YES
 CELL_TOP| Periodicity                                                      NONE
 
 GENERATE|  Preliminary Number of Bonds generated:                             0
 GENERATE|  Achieved consistency in connectivity generation.

 CELL| Volume [angstrom^3]:                                          8000.000000
 CELL| Vector a [angstrom]:      20.000     0.000     0.000   |a| =    20.000000
 CELL| Vector b [angstrom]:       0.000    20.000     0.000   |b| =    20.000000
 CELL| Vector c [angstrom]:       0.000     0.000    20.000   |c| =    20.000000
 CELL| Angle (b,c), alpha [degree]:                                    90.000000
 CELL| Angle (a,c), beta  [degree]:                                    90.000000
 CELL| Angle (a,b), gamma [degree]:                                    90.000000
 CELL| Numerically orthorhombic:                                             YES
 CELL| Periodicity                                                          NONE

 CELL_REF| Volume [angstrom^3]:                                      8000.000000
 CELL_REF| Vector a [angstrom    20.000     0.000     0.000   |a| =    20.000000
 CELL_REF| Vector b [angstrom     0.000    20.000     0.000   |b| =    20.000000
 CELL_REF| Vector c [angstrom     0.000     0.000    20.000   |c| =    20.000000
 CELL_REF| Angle (b,c), alpha [degree]:                                90.000000
 CELL_REF| Angle (a,c), beta  [degree]:                                90.000000
 CELL_REF| Angle (a,b), gamma [degree]:                                90.000000
 CELL_REF| Numerically orthorhombic:                                         YES
 CELL_REF| Periodicity                                                      NONE

 *******************************************************************************
 *******************************************************************************
 **                                                                           **
 **     #####                         ##              ##                      **
 **    ##   ##            ##          ##              ##                      **
 **   ##     ##                       ##            ######                    **
 **   ##     ##  ##   ##  ##   #####  ##  ##   ####   ##    #####    #####    **
 **   ##     ##  ##   ##  ##  ##      ## ##   ##      ##   ##   ##  ##   ##   **
 **   ##  ## ##  ##   ##  ##  ##      ####     ###    ##   ######   ######    **
 **    ##  ###   ##   ##  ##  ##      ## ##      ##   ##   ##       ##        **
 **     #######   #####   ##   #####  ##  ##  ####    ##    #####   ##        **
 **           ##                                                    ##        **
 **                                                                           **
 **                                                ... make the atoms dance   **
 **                                                                           **
 **            Copyright (C) by CP2K developers group (2000-2024)             **
 **                      J. Chem. Phys. 152, 194103 (2020)                    **
 **                                                                           **
 *******************************************************************************

 DFT| Spin restricted Kohn-Sham (RKS) calculation                            RKS
 DFT| Multiplicity                                                             1
 DFT| Number of spin states                                                    1
 DFT| Charge                                                                   0
 DFT| Self-interaction correction (SIC)                                       NO
 DFT| Cutoffs: density                                              1.000000E-10
 DFT|          gradient                                             1.000000E-10
 DFT|          tau                                                  1.000000E-10
 DFT|          cutoff_smoothing_range                               0.000000E+00
 DFT| XC density smoothing                                                  NONE
 DFT| XC derivatives                                                          PW

 FUNCTIONAL| PBE:
 FUNCTIONAL| J.P.Perdew, K.Burke, M.Ernzerhof, Phys. Rev. Letter, vol. 77, n 18,
 FUNCTIONAL|  pp. 3865-3868, (1996)sx=0.750sc=1.000{spin unpolarized}           


 QS| Method:                                                                GAPW
 QS| Density plane wave grid type                        NON-SPHERICAL FULLSPACE
 QS| Number of grid levels:                                                    5
 QS| Density cutoff [a.u.]:                                                600.0
 QS| Multi grid cutoff [a.u.]: 1) grid level                               600.0
 QS|                           2) grid level                               200.0
 QS|                           3) grid level                                66.7
 QS|                           4) grid level                                22.2
 QS|                           5) grid level                                 7.4
 QS| Grid level progression factor:                                          3.0
 QS| Relative density cutoff [a.u.]:                                        40.0
 QS| Interaction thresholds: eps_pgf_orb:                                1.0E-30
 QS|                         eps_filter_matrix:                          0.0E+00
 QS|                         eps_core_charge:                            1.0E-17
 QS|                         eps_rho_gspace:                             1.0E-15
 QS|                         eps_rho_rspace:                             1.0E-15
 QS|                         eps_gvg_rspace:                             3.2E-08
 QS|                         eps_ppl:                                    1.0E-02
 QS|                         eps_ppnl:                                   3.2E-10
 QS| GAPW|      One center basis from orbital basis primitives
 QS| GAPW|                   eps_fit:                                    1.0E-04
 QS| GAPW|                   eps_iso:                                    1.0E-12
 QS| GAPW|                   eps_svd:                                    1.0E-08
 QS| GAPW|                   eps_cpc:                                    1.0E-15
 QS| GAPW|   atom-r-grid: quadrature:                                     GC_LOG
 QS| GAPW|      atom-s-grid:  max l :                                          6
 QS| GAPW|      max_l_rho0 :                                                   2


 ATOMIC KIND INFORMATION

  1. Atomic kind: S                                     Number of atoms:       1

     Orbital Basis Set                                                  TZP-ZORA

       Number of orbital shell sets:                                          16
       Number of orbital shells:                                              16
       Number of primitive Cartesian functions:                               26
       Number of Cartesian basis functions:                                   45
       Number of spherical basis functions:                                   40
       Norm type:                                                              2

       Normalised Cartesian orbitals:

                        Set   Shell   Orbital            Exponent    Coefficient

                          1       1    1s           131334.981146      10.441701
                                                     20181.900419      16.179351
                                                      4835.704631      25.099201
                                                      1439.738154      38.502832
                                                       476.154263      55.742865

                          2       1    1s              168.682520      33.358972

                          3       1    1s               62.922540      15.922629

                          4       1    1s               24.333300       7.808378

                          5       1    1s                6.865738       3.022912

                          6       1    1s                3.374956      -1.169784
                                                         1.517499      -0.357770

                          7       1    1s                0.446515       0.389302

                          8       1    1s                0.161742       0.181772

                          9       1    1px             754.152359      10.271879
                                                       193.633447      12.718958
                                                        64.141062      15.240188
                                                        23.757144      14.650983
                                                         9.452343       9.664480
                                                         3.939968       3.799949
                          9       1    1py             754.152359      10.271879
                                                       193.633447      12.718958
                                                        64.141062      15.240188
                                                        23.757144      14.650983
                                                         9.452343       9.664480
                                                         3.939968       3.799949
                          9       1    1pz             754.152359      10.271879
                                                       193.633447      12.718958
                                                        64.141062      15.240188
                                                        23.757144      14.650983
                                                         9.452343       9.664480
                                                         3.939968       3.799949

                         10       1    1px               1.720806       2.809343
                         10       1    1py               1.720806       2.809343
                         10       1    1pz               1.720806       2.809343

                         11       1    1px               0.770763       1.029417
                         11       1    1py               0.770763       1.029417
                         11       1    1pz               0.770763       1.029417

                         12       1    1px               0.287374       0.299916
                         12       1    1py               0.287374       0.299916
                         12       1    1pz               0.287374       0.299916

                         13       1    1px               0.101132       0.081293
                         13       1    1py               0.101132       0.081293
                         13       1    1pz               0.101132       0.081293

                         14       1    1dx2              0.781337       1.068751
                         14       1    1dxy              0.781337       1.851131
                         14       1    1dxz              0.781337       1.851131
                         14       1    1dy2              0.781337       1.068751
                         14       1    1dyz              0.781337       1.851131
                         14       1    1dz2              0.781337       1.068751

                         15       1    1dx2              0.264839       0.160927
                         15       1    1dxy              0.264839       0.278733
                         15       1    1dxz              0.264839       0.278733
                         15       1    1dy2              0.264839       0.160927
                         15       1    1dyz              0.264839       0.278733
                         15       1    1dz2              0.264839       0.160927

                         16       1    1fx3              0.583790       0.438563
                         16       1    1fx2y             0.583790       0.980657
                         16       1    1fx2z             0.583790       0.980657
                         16       1    1fxy2             0.583790       0.980657
                         16       1    1fxyz             0.583790       1.698547
                         16       1    1fxz2             0.583790       0.980657
                         16       1    1fy3              0.583790       0.438563
                         16       1    1fy2z             0.583790       0.980657
                         16       1    1fyz2             0.583790       0.980657
                         16       1    1fz3              0.583790       0.438563

       Atomic covalent radius [Angstrom]:                                  1.020

       Atomic van der Waals radius [Angstrom]:                             1.800

     The atoms of this atomic kind are PAW atoms (GAPW):
       Hard Gaussian function radius:                                      1.512
       Rho0 radius:                                                        1.512
       Maximum GTO radius used for PAW projector construction:            24.566

     GAPW Soft Basis Set                                           TZP-ZORA_soft

       Number of orbital shell sets:                                          16
       Number of orbital shells:                                              16
       Number of primitive Cartesian functions:                               12
       Number of Cartesian basis functions:                                   45
       Number of spherical basis functions:                                   40
       Norm type:                                                              2

       Normalised Cartesian orbitals:

                        Set   Shell   Orbital            Exponent    Coefficient

                          1       1    1s         

                          2       1    1s         

                          3       1    1s         

                          4       1    1s         

                          5       1    1s         

                          6       1    1s                3.374956      -1.169784
                                                         1.517499      -0.357770

                          7       1    1s                0.446515       0.389302

                          8       1    1s                0.161742       0.181772

                          9       1    1px               3.939968       3.799949
                          9       1    1py               3.939968       3.799949
                          9       1    1pz               3.939968       3.799949

                         10       1    1px               1.720806       2.809343
                         10       1    1py               1.720806       2.809343
                         10       1    1pz               1.720806       2.809343

                         11       1    1px               0.770763       1.029417
                         11       1    1py               0.770763       1.029417
                         11       1    1pz               0.770763       1.029417

                         12       1    1px               0.287374       0.299916
                         12       1    1py               0.287374       0.299916
                         12       1    1pz               0.287374       0.299916

                         13       1    1px               0.101132       0.081293
                         13       1    1py               0.101132       0.081293
                         13       1    1pz               0.101132       0.081293

                         14       1    1dx2              0.781337       1.068751
                         14       1    1dxy              0.781337       1.851131
                         14       1    1dxz              0.781337       1.851131
                         14       1    1dy2              0.781337       1.068751
                         14       1    1dyz              0.781337       1.851131
                         14       1    1dz2              0.781337       1.068751

                         15       1    1dx2              0.264839       0.160927
                         15       1    1dxy              0.264839       0.278733
                         15       1    1dxz              0.264839       0.278733
                         15       1    1dy2              0.264839       0.160927
                         15       1    1dyz              0.264839       0.278733
                         15       1    1dz2              0.264839       0.160927

                         16       1    1fx3              0.583790       0.438563
                         16       1    1fx2y             0.583790       0.980657
                         16       1    1fx2z             0.583790       0.980657
                         16       1    1fxy2             0.583790       0.980657
                         16       1    1fxyz             0.583790       1.698547
                         16       1    1fxz2             0.583790       0.980657
                         16       1    1fy3              0.583790       0.438563
                         16       1    1fy2z             0.583790       0.980657
                         16       1    1fyz2             0.583790       0.980657
                         16       1    1fz3              0.583790       0.438563

     AE Potential information for                                            ALL

       Description:                                       All-electron potential
                                          Krack, Parrinello, PCCP 2, 2105 (2000)

       Gaussian exponent of the core charge distribution:               2.834467
       Electronic configuration (s p d ...):                           6  10   0

  2. Atomic kind: C                                     Number of atoms:       1

     Orbital Basis Set                                                  TZP-ZORA

       Number of orbital shell sets:                                          11
       Number of orbital shells:                                              11
       Number of primitive Cartesian functions:                               19
       Number of Cartesian basis functions:                                   36
       Number of spherical basis functions:                                   31
       Norm type:                                                              2

       Normalised Cartesian orbitals:

                        Set   Shell   Orbital            Exponent    Coefficient

                          1       1    1s             7615.059991       1.058240
                                                      1145.086846       1.933008
                                                       261.919524       3.218528
                                                        74.668342       4.773822
                                                        24.405512       5.743063

                          2       1    1s                8.686790       2.126261
                                                         3.236576       0.778233

                          3       1    1s                1.301800       0.868597

                          4       1    1s                0.527689       0.441259

                          5       1    1s                0.156945       0.177714

                          6       1    1px              34.507679       1.410559
                                                         7.913044       1.480250
                                                         2.366155       1.321166
                                                         0.811724       0.784026
                          6       1    1py              34.507679       1.410559
                                                         7.913044       1.480250
                                                         2.366155       1.321166
                                                         0.811724       0.784026
                          6       1    1pz              34.507679       1.410559
                                                         7.913044       1.480250
                                                         2.366155       1.321166
                                                         0.811724       0.784026

                          7       1    1px               0.312289       0.332763
                          7       1    1py               0.312289       0.332763
                          7       1    1pz               0.312289       0.332763

                          8       1    1px               0.114003       0.094424
                          8       1    1py               0.114003       0.094424
                          8       1    1pz               0.114003       0.094424

                          9       1    1dx2              1.154049       2.114959
                          9       1    1dxy              1.154049       3.663216
                          9       1    1dxz              1.154049       3.663216
                          9       1    1dy2              1.154049       2.114959
                          9       1    1dyz              1.154049       3.663216
                          9       1    1dz2              1.154049       2.114959

                         10       1    1dx2              0.351129       0.263618
                         10       1    1dxy              0.351129       0.456600
                         10       1    1dxz              0.351129       0.456600
                         10       1    1dy2              0.351129       0.263618
                         10       1    1dyz              0.351129       0.456600
                         10       1    1dz2              0.351129       0.263618

                         11       1    1fx3              0.819312       0.940190
                         11       1    1fx2y             0.819312       2.102328
                         11       1    1fx2z             0.819312       2.102328
                         11       1    1fxy2             0.819312       2.102328
                         11       1    1fxyz             0.819312       3.641338
                         11       1    1fxz2             0.819312       2.102328
                         11       1    1fy3              0.819312       0.940190
                         11       1    1fy2z             0.819312       2.102328
                         11       1    1fyz2             0.819312       2.102328
                         11       1    1fz3              0.819312       0.940190

       Atomic covalent radius [Angstrom]:                                  0.770

       Atomic van der Waals radius [Angstrom]:                             1.700

     The atoms of this atomic kind are PAW atoms (GAPW):
       Hard Gaussian function radius:                                      1.512
       Rho0 radius:                                                        1.512
       Maximum GTO radius used for PAW projector construction:            24.566

     GAPW Soft Basis Set                                           TZP-ZORA_soft

       Number of orbital shell sets:                                          11
       Number of orbital shells:                                              11
       Number of primitive Cartesian functions:                               11
       Number of Cartesian basis functions:                                   36
       Number of spherical basis functions:                                   31
       Norm type:                                                              2

       Normalised Cartesian orbitals:

                        Set   Shell   Orbital            Exponent    Coefficient

                          1       1    1s         

                          2       1    1s                3.236576       0.778233

                          3       1    1s                1.301800       0.868597

                          4       1    1s                0.527689       0.441259

                          5       1    1s                0.156945       0.177714

                          6       1    1px               2.366155       1.321166
                                                         0.811724       0.784026
                          6       1    1py               2.366155       1.321166
                                                         0.811724       0.784026
                          6       1    1pz               2.366155       1.321166
                                                         0.811724       0.784026

                          7       1    1px               0.312289       0.332763
                          7       1    1py               0.312289       0.332763
                          7       1    1pz               0.312289       0.332763

                          8       1    1px               0.114003       0.094424
                          8       1    1py               0.114003       0.094424
                          8       1    1pz               0.114003       0.094424

                          9       1    1dx2              1.154049       2.114959
                          9       1    1dxy              1.154049       3.663216
                          9       1    1dxz              1.154049       3.663216
                          9       1    1dy2              1.154049       2.114959
                          9       1    1dyz              1.154049       3.663216
                          9       1    1dz2              1.154049       2.114959

                         10       1    1dx2              0.351129       0.263618
                         10       1    1dxy              0.351129       0.456600
                         10       1    1dxz              0.351129       0.456600
                         10       1    1dy2              0.351129       0.263618
                         10       1    1dyz              0.351129       0.456600
                         10       1    1dz2              0.351129       0.263618

                         11       1    1fx3              0.819312       0.940190
                         11       1    1fx2y             0.819312       2.102328
                         11       1    1fx2z             0.819312       2.102328
                         11       1    1fxy2             0.819312       2.102328
                         11       1    1fxyz             0.819312       3.641338
                         11       1    1fxz2             0.819312       2.102328
                         11       1    1fy3              0.819312       0.940190
                         11       1    1fy2z             0.819312       2.102328
                         11       1    1fyz2             0.819312       2.102328
                         11       1    1fz3              0.819312       0.940190

     AE Potential information for                                            ALL

       Description:                                       All-electron potential
                                          Krack, Parrinello, PCCP 2, 2105 (2000)

       Gaussian exponent of the core charge distribution:               4.109048
       Electronic configuration (s p d ...):                           4   2   0

  3. Atomic kind: H                                     Number of atoms:       2

     Orbital Basis Set                                                  TZP-ZORA

       Number of orbital shell sets:                                           6
       Number of orbital shells:                                               6
       Number of primitive Cartesian functions:                                8
       Number of Cartesian basis functions:                                   15
       Number of spherical basis functions:                                   14
       Norm type:                                                              2

       Normalised Cartesian orbitals:

                        Set   Shell   Orbital            Exponent    Coefficient

                          1       1    1s               34.877584       0.254499
                                                         5.233973       0.449285
                                                         1.185033       0.695456

                          2       1    1s                0.328339       0.309138

                          3       1    1s                0.110319       0.136426

                          4       1    1px               0.718844       0.943482
                          4       1    1py               0.718844       0.943482
                          4       1    1pz               0.718844       0.943482

                          5       1    1px               0.350000       0.383729
                          5       1    1py               0.350000       0.383729
                          5       1    1pz               0.350000       0.383729

                          6       1    1dx2              1.075060       1.868171
                          6       1    1dxy              1.075060       3.235768
                          6       1    1dxz              1.075060       3.235768
                          6       1    1dy2              1.075060       1.868171
                          6       1    1dyz              1.075060       3.235768
                          6       1    1dz2              1.075060       1.868171

       Atomic covalent radius [Angstrom]:                                  0.320

       Atomic van der Waals radius [Angstrom]:                             1.090

     The atoms of this atomic kind are PAW atoms (GAPW):
       Hard Gaussian function radius:                                      1.200
       Rho0 radius:                                                        1.200
       Maximum GTO radius used for PAW projector construction:            24.566

     GAPW Soft Basis Set                                           TZP-ZORA_soft

       Number of orbital shell sets:                                           6
       Number of orbital shells:                                               6
       Number of primitive Cartesian functions:                                7
       Number of Cartesian basis functions:                                   15
       Number of spherical basis functions:                                   14
       Norm type:                                                              2

       Normalised Cartesian orbitals:

                        Set   Shell   Orbital            Exponent    Coefficient

                          1       1    1s                5.233973       0.449285
                                                         1.185033       0.695456

                          2       1    1s                0.328339       0.309138

                          3       1    1s                0.110319       0.136426

                          4       1    1px               0.718844       0.943482
                          4       1    1py               0.718844       0.943482
                          4       1    1pz               0.718844       0.943482

                          5       1    1px               0.350000       0.383729
                          5       1    1py               0.350000       0.383729
                          5       1    1pz               0.350000       0.383729

                          6       1    1dx2              1.075060       1.868171
                          6       1    1dxy              1.075060       3.235768
                          6       1    1dxz              1.075060       3.235768
                          6       1    1dy2              1.075060       1.868171
                          6       1    1dyz              1.075060       3.235768
                          6       1    1dz2              1.075060       1.868171

     AE Potential information for                                            ALL

       Description:                                       All-electron potential
                                          Krack, Parrinello, PCCP 2, 2105 (2000)

       Gaussian exponent of the core charge distribution:              12.500000
       Electronic configuration (s p d ...):                           1   0   0


 MOLECULE KIND INFORMATION


 All atoms are their own molecule, skipping detailed information


 TOTAL NUMBERS AND MAXIMUM NUMBERS

  Total number of            - Atomic kinds:                                   3
                             - Atoms:                                          4
                             - Shell sets:                                    39
                             - Shells:                                        39
                             - Primitive Cartesian functions:                 61
                             - Cartesian basis functions:                    111
                             - Spherical basis functions:                     99

  Maximum angular momentum of the orbital basis functions:                     3


 MODULE QUICKSTEP: ATOMIC COORDINATES IN ANGSTROM

   Atom Kind Element         X             Y             Z       Z(eff)     Mass
      1    1 S    16     10.847829     10.797429      9.615020  16.0000  32.0650
      2    2 C     6      9.756105      9.642393      9.897872   6.0000  12.0107
      3    3 H     1      9.152171      9.202571      9.095111   1.0000   1.0079
      4    3 H     1      9.571815      9.248402     10.904889   1.0000   1.0079



 SCF PARAMETERS         Density guess:                                    ATOMIC
                        --------------------------------------------------------
                        max_scf:                                              20
                        max_scf_history:                                       0
                        max_diis:                                              4
                        --------------------------------------------------------
                        eps_scf:                                        1.00E-07
                        eps_scf_history:                                0.00E+00
                        eps_diis:                                       1.00E-01
                        eps_eigval:                                     1.00E-05
                        --------------------------------------------------------
                        level_shift [a.u.]:                             0.000000
                        --------------------------------------------------------
                        Outer loop SCF in use 
                        No variables optimised in outer loop
                        eps_scf                                         1.00E-07
                        max_scf                                               50
                        No outer loop optimization
                        step_size                                       5.00E-01

 PW_GRID| Information for grid number                                          1
 PW_GRID| Grid distributed over                                   128 processors
 PW_GRID| Real space group dimensions                                   128    1
 PW_GRID| the grid is blocked:                                                NO
 PW_GRID| Cutoff [a.u.]                                                   1200.0
 PW_GRID| spherical cutoff:                                                   NO
 PW_GRID|   Bounds   1           -300     299                Points:         600
 PW_GRID|   Bounds   2           -300     299                Points:         600
 PW_GRID|   Bounds   3           -300     299                Points:         600
 PW_GRID| Volume element (a.u.^3)  0.2499E-03     Volume (a.u.^3)     53986.6767
 PW_GRID| Grid span                                                    FULLSPACE
 PW_GRID|   Distribution                         Average         Max         Min
 PW_GRID|   G-Vectors                          1687500.0     1687800     1687200
 PW_GRID|   G-Rays                                2812.5        2813        2812
 PW_GRID|   Real Space Points                  1687500.0     1800000     1440000

 PW_GRID| Information for grid number                                          2
 PW_GRID| Number of the reference grid                                         1
 PW_GRID| Grid distributed over                                   128 processors
 PW_GRID| Real space group dimensions                                   128    1
 PW_GRID| the grid is blocked:                                                NO
 PW_GRID| Cutoff [a.u.]                                                    600.0
 PW_GRID| spherical cutoff:                                                   NO
 PW_GRID|   Bounds   1           -216     215                Points:         432
 PW_GRID|   Bounds   2           -216     215                Points:         432
 PW_GRID|   Bounds   3           -216     215                Points:         432
 PW_GRID| Volume element (a.u.^3)  0.6696E-03     Volume (a.u.^3)     53986.6767
 PW_GRID| Grid span                                                    FULLSPACE
 PW_GRID|   Distribution                         Average         Max         Min
 PW_GRID|   G-Vectors                           629856.0      630288      629424
 PW_GRID|   G-Rays                                1458.0        1459        1457
 PW_GRID|   Real Space Points                   629856.0      746496      559872

 PW_GRID| Information for grid number                                          3
 PW_GRID| Number of the reference grid                                         2
 PW_GRID| Grid distributed over                                   128 processors
 PW_GRID| Real space group dimensions                                   128    1
 PW_GRID| the grid is blocked:                                                NO
 PW_GRID| Cutoff [a.u.]                                                    200.0
 PW_GRID| spherical cutoff:                                                   NO
 PW_GRID|   Bounds   1           -121     121                Points:         243
 PW_GRID|   Bounds   2           -121     121                Points:         243
 PW_GRID|   Bounds   3           -121     121                Points:         243
 PW_GRID| Volume element (a.u.^3)  0.3762E-02     Volume (a.u.^3)     53986.6767
 PW_GRID| Grid span                                                    FULLSPACE
 PW_GRID|   Distribution                         Average         Max         Min
 PW_GRID|   G-Vectors                           112100.8      112266      111780
 PW_GRID|   G-Rays                                 461.3         462         460
 PW_GRID|   Real Space Points                   112100.8      118098       59049

 PW_GRID| Information for grid number                                          4
 PW_GRID| Number of the reference grid                                         2
 PW_GRID| Grid distributed over                                   128 processors
 PW_GRID| Real space group dimensions                                   128    1
 PW_GRID| the grid is blocked:                                                NO
 PW_GRID| Cutoff [a.u.]                                                     66.7
 PW_GRID| spherical cutoff:                                                   NO
 PW_GRID|   Bounds   1            -72      71                Points:         144
 PW_GRID|   Bounds   2            -72      71                Points:         144
 PW_GRID|   Bounds   3            -72      71                Points:         144
 PW_GRID| Volume element (a.u.^3)  0.1808E-01     Volume (a.u.^3)     53986.6767
 PW_GRID| Grid span                                                    FULLSPACE
 PW_GRID|   Distribution                         Average         Max         Min
 PW_GRID|   G-Vectors                            23328.0       23472       23184
 PW_GRID|   G-Rays                                 162.0         163         161
 PW_GRID|   Real Space Points                    23328.0       41472       20736

 PW_GRID| Information for grid number                                          5
 PW_GRID| Number of the reference grid                                         2
 PW_GRID| Grid distributed over                                   128 processors
 PW_GRID| Real space group dimensions                                     8   16
 PW_GRID| the grid is blocked:                                                NO
 PW_GRID| Cutoff [a.u.]                                                     22.2
 PW_GRID| spherical cutoff:                                                   NO
 PW_GRID|   Bounds   1            -40      40                Points:          81
 PW_GRID|   Bounds   2            -40      40                Points:          81
 PW_GRID|   Bounds   3            -40      40                Points:          81
 PW_GRID| Volume element (a.u.^3)  0.1016         Volume (a.u.^3)     53986.6767
 PW_GRID| Grid span                                                    FULLSPACE
 PW_GRID|   Distribution                         Average         Max         Min
 PW_GRID|   G-Vectors                             4151.9        4293        4050
 PW_GRID|   G-Rays                                  51.3          53          50
 PW_GRID|   Real Space Points                     4151.9        5346        4050

 PW_GRID| Information for grid number                                          6
 PW_GRID| Number of the reference grid                                         2
 PW_GRID| Grid distributed over                                   128 processors
 PW_GRID| Real space group dimensions                                     8   16
 PW_GRID| the grid is blocked:                                                NO
 PW_GRID| Cutoff [a.u.]                                                      7.4
 PW_GRID| spherical cutoff:                                                   NO
 PW_GRID|   Bounds   1            -24      23                Points:          48
 PW_GRID|   Bounds   2            -24      23                Points:          48
 PW_GRID|   Bounds   3            -24      23                Points:          48
 PW_GRID| Volume element (a.u.^3)  0.4882         Volume (a.u.^3)     53986.6767
 PW_GRID| Grid span                                                    FULLSPACE
 PW_GRID|   Distribution                         Average         Max         Min
 PW_GRID|   G-Vectors                              864.0         912         816
 PW_GRID|   G-Rays                                  18.0          19          17
 PW_GRID|   Real Space Points                      864.0         864         864

 POISSON| Solver                                          Martyna-Tuckerman (MT)
 POISSON| MT| Alpha                                                        7.000
 POISSON| MT| Relative cutoff                                                2.0
 POISSON| Periodicity                                                       NONE

 RS_GRID| Information for grid number                                          2
 RS_GRID|   Bounds   1           -216     215                Points:         432
 RS_GRID|   Bounds   2           -216     215                Points:         432
 RS_GRID|   Bounds   3           -216     215                Points:         432
 RS_GRID| Real space distribution over                                  4 groups
 RS_GRID| Real space distribution along direction                              1
 RS_GRID| Border size                                                         44
 RS_GRID| Real space distribution over                                  4 groups
 RS_GRID| Real space distribution along direction                              2
 RS_GRID| Border size                                                         44
 RS_GRID| Real space distribution over                                  8 groups
 RS_GRID| Real space distribution along direction                              3
 RS_GRID| Border size                                                         44
 RS_GRID|   Distribution                         Average         Max         Min
 RS_GRID|   Planes                                 196.0         196         196
 RS_GRID|   Distribution                         Average         Max         Min
 RS_GRID|   Planes                                 196.0         196         196
 RS_GRID|   Distribution                         Average         Max         Min
 RS_GRID|   Planes                                 142.0         142         142

 RS_GRID| Information for grid number                                          3
 RS_GRID|   Bounds   1           -121     121                Points:         243
 RS_GRID|   Bounds   2           -121     121                Points:         243
 RS_GRID|   Bounds   3           -121     121                Points:         243
 RS_GRID| Real space distribution over                                  4 groups
 RS_GRID| Real space distribution along direction                              1
 RS_GRID| Border size                                                         35
 RS_GRID| Real space distribution over                                  4 groups
 RS_GRID| Real space distribution along direction                              2
 RS_GRID| Border size                                                         35
 RS_GRID| Real space distribution over                                  8 groups
 RS_GRID| Real space distribution along direction                              3
 RS_GRID| Border size                                                         35
 RS_GRID|   Distribution                         Average         Max         Min
 RS_GRID|   Planes                                 130.8         131         130
 RS_GRID|   Distribution                         Average         Max         Min
 RS_GRID|   Planes                                 130.8         131         130
 RS_GRID|   Distribution                         Average         Max         Min
 RS_GRID|   Planes                                 100.4         101         100

 RS_GRID| Information for grid number                                          4
 RS_GRID|   Bounds   1            -72      71                Points:         144
 RS_GRID|   Bounds   2            -72      71                Points:         144
 RS_GRID|   Bounds   3            -72      71                Points:         144
 RS_GRID| Real space fully replicated
 RS_GRID| Group size                                                           1

 RS_GRID| Information for grid number                                          5
 RS_GRID|   Bounds   1            -40      40                Points:          81
 RS_GRID|   Bounds   2            -40      40                Points:          81
 RS_GRID|   Bounds   3            -40      40                Points:          81
 RS_GRID| Real space fully replicated
 RS_GRID| Group size                                                           1

 RS_GRID| Information for grid number                                          6
 RS_GRID|   Bounds   1            -24      23                Points:          48
 RS_GRID|   Bounds   2            -24      23                Points:          48
 RS_GRID|   Bounds   3            -24      23                Points:          48
 RS_GRID| Real space fully replicated
 RS_GRID| Group size                                                           1

  HFX_INFO| Replica ID:                                                        1
  HFX_INFO| FRACTION:                                               0.2500000000
  HFX_INFO| Interaction Potential:                                       COULOMB
  HFX_INFO| EPS_SCHWARZ:                                                 1.0E-10
  HFX_INFO| EPS_SCHWARZ_FORCES                                           1.0E-06
  HFX_INFO| EPS_STORAGE_SCALING:                                         1.0E+00
  HFX_INFO| NBINS:                                                            64
  HFX_INFO| BLOCK_SIZE:                                                        1
  HFX_INFO| Number of periodic shells considered:                           NONE
  HFX_INFO| Number of periodic cells considered:                            NONE


 Number of electrons:                                                         24
 Number of occupied orbitals:                                                 12
 Number of molecular orbitals:                                                12

 Number of orbital functions:                                                 99
 Number of independent orbital functions:                                     99

 Extrapolation method: initial_guess

 Atomic guess: The first density matrix is obtained in terms of atomic orbitals
               and electronic configurations assigned to each atomic kind

 Guess for atomic kind: S

 Electronic structure
    Total number of core electrons                                          0.00
    Total number of valence electrons                                      16.00
    Total number of electrons                                              16.00
    Multiplicity                                                   not specified
    S      2.00  2.00  2.00
    P      6.00  4.00
 

 *******************************************************************************
                  Iteration          Convergence                     Energy [au]
 *******************************************************************************
                          1        0.735833                    -396.664370503190
                          2        0.395366                    -396.684447328044
                          3        0.568508E-01                -396.696715605034
                          4        0.151523E-01                -396.697443952428
                          5        0.221849E-04                -396.697506988348
                          6        0.476659E-05                -396.697506988693
                          7        0.354178E-07                -396.697506988703

 Energy components [Hartree]           Total Energy ::         -396.697506988703
                                        Band Energy ::         -227.783603260780
                                     Kinetic Energy ::          395.605362430639
                                   Potential Energy ::         -792.302869419341
                                      Virial (-V/T) ::            2.002760691997
                                        Core Energy ::         -549.239194536709
                                          XC Energy ::          -24.137388753704
                                     Coulomb Energy ::          176.679076301710

 Orbital energies  State     L     Occupation   Energy[a.u.]          Energy[eV]

                       1     0          2.000     -87.798243        -2389.111702
                       2     0          2.000      -7.696671         -209.437072
                       3     0          2.000      -0.628463          -17.101354
 
                       1     1          6.000      -5.749750         -156.458648
                       2     1          4.000      -0.259587           -7.063730
 

 Total Electron Density at R=0:                                      2656.675099

 Guess for atomic kind: C

 Electronic structure
    Total number of core electrons                                          0.00
    Total number of valence electrons                                       6.00
    Total number of electrons                                               6.00
    Multiplicity                                                   not specified
    S      2.00  2.00
    P      2.00
 

 *******************************************************************************
                  Iteration          Convergence                     Energy [au]
 *******************************************************************************
                          1        0.135648                     -37.407840427390
                          2        0.104922                     -37.413098086831
                          3        0.160634E-02                 -37.420888704805
                          4        0.162661E-03                 -37.420890654531
                          5        0.418364E-05                 -37.420890673186
                          6        0.123209E-06                 -37.420890673200

 Energy components [Hartree]           Total Energy ::          -37.420890673200
                                        Band Energy ::          -21.269097778202
                                     Kinetic Energy ::           37.198541801893
                                   Potential Energy ::          -74.619432475094
                                      Virial (-V/T) ::            2.005977354502
                                        Core Energy ::          -50.339304428670
                                          XC Energy ::           -4.732545570193
                                     Coulomb Energy ::           17.650959325662

 Orbital energies  State     L     Occupation   Energy[a.u.]          Energy[eV]

                       1     0          2.000      -9.943705         -270.581971
                       2     0          2.000      -0.496043          -13.498008
 
                       1     1          2.000      -0.194801           -5.300814
 

 Total Electron Density at R=0:                                       121.299391

 Guess for atomic kind: H

 Electronic structure
    Total number of core electrons                                          0.00
    Total number of valence electrons                                       1.00
    Total number of electrons                                               1.00
    Multiplicity                                                   not specified
    S      1.00
 

 *******************************************************************************
                  Iteration          Convergence                     Energy [au]
 *******************************************************************************
                          1        0.901344E-02                  -0.444560434385
                          2        0.112810E-02                  -0.444629377369
                          3        0.824978E-04                  -0.444631123607
                          4        0.531592E-07                  -0.444631130415

 Energy components [Hartree]           Total Energy ::           -0.444631130415
                                        Band Energy ::           -0.229051818617
                                     Kinetic Energy ::            0.431531450645
                                   Potential Energy ::           -0.876162581060
                                      Virial (-V/T) ::            2.030356257348
                                        Core Energy ::           -0.496316890851
                                          XC Energy ::           -0.235228547242
                                     Coulomb Energy ::            0.286914307678

 Orbital energies  State     L     Occupation   Energy[a.u.]          Energy[eV]

                       1     0          1.000      -0.229052           -6.232817
 

 Total Electron Density at R=0:                                         0.248567
 Re-scaling the density matrix to get the right number of electrons
                  # Electrons              Trace(P)               Scaling factor
                           24                24.000                        1.000


 SCF WAVEFUNCTION OPTIMIZATION

  ----------------------------------- OT ---------------------------------------
  Minimizer      : DIIS                : direct inversion
                                         in the iterative subspace
                                         using   7 DIIS vectors
                                         safer DIIS on
  Preconditioner : FULL_ALL            : diagonalization, state selective
  Precond_solver : DEFAULT
  stepsize       :    0.15000000                  energy_gap     :    0.08000000
  eps_taylor     :   0.10000E-15                  max_taylor     :             4
  ----------------------------------- OT ---------------------------------------

  Step     Update method      Time    Convergence         Total energy    Change
  ------------------------------------------------------------------------------

  HFX_MEM_INFO| Est. max. program size before HFX [MiB]:                     975
  HFX_MEM_INFO| Number of cart. primitive ERI's calculated:            117231057
  HFX_MEM_INFO| Number of sph. ERI's calculated:                        23269797
  HFX_MEM_INFO| Number of sph. ERI's stored in-core:                    23269797
  HFX_MEM_INFO| Number of sph. ERI's stored on disk:                           0
  HFX_MEM_INFO| Number of sph. ERI's calculated on the fly:                    0
  HFX_MEM_INFO| Total memory consumption ERI's RAM [MiB]:                     70
  HFX_MEM_INFO| Whereof max-vals [MiB]:                                        2
  HFX_MEM_INFO| Total compression factor ERI's RAM:                         2.57
  HFX_MEM_INFO| Total memory consumption ERI's disk [MiB]:                     0
  HFX_MEM_INFO| Total compression factor ERI's disk:                        0.00
  HFX_MEM_INFO| Size of density/Fock matrix [MiB]:                             0
  HFX_MEM_INFO| Size of buffers [MiB]:                                         1
  HFX_MEM_INFO| Est. max. program size after HFX  [MiB]:                     972

     1 OT DIIS     0.15E+00  103.3     0.38591915      -415.2409366290 -4.15E+02
     2 OT DIIS     0.15E+00   57.8     0.13920420      -433.7778218498 -1.85E+01
     3 OT DIIS     0.15E+00   53.7     0.05595261      -435.8418832551 -2.06E+00
     4 OT DIIS     0.15E+00   54.7     0.02645221      -436.1141817551 -2.72E-01
     5 OT DIIS     0.15E+00   51.6     0.01969182      -436.2807070457 -1.67E-01
     6 OT DIIS     0.15E+00   52.5     0.01584439      -436.4641419223 -1.83E-01
     7 OT DIIS     0.15E+00   51.2     0.01308444      -436.6201525429 -1.56E-01
     8 OT DIIS     0.15E+00   51.5     0.01147342      -436.7468885796 -1.27E-01
     9 OT DIIS     0.15E+00   53.4     0.01000700      -436.8582759117 -1.11E-01
    10 OT DIIS     0.15E+00   55.3     0.00969933      -436.8795822135 -2.13E-02
    11 OT DIIS     0.15E+00   52.8     0.00822685      -437.0111568624 -1.32E-01
    12 OT DIIS     0.15E+00   52.6     0.00750587      -437.0611766140 -5.00E-02
    13 OT DIIS     0.15E+00   53.6     0.00640666      -437.1367234639 -7.55E-02
    14 OT DIIS     0.15E+00   51.4     0.00587628      -437.1789848906 -4.23E-02
    15 OT DIIS     0.15E+00   50.5     0.00779711      -437.1724106848  6.57E-03
    16 OT DIIS     0.15E+00   49.1     0.00434756      -437.2342659614 -6.19E-02
    17 OT DIIS     0.15E+00   53.5     0.00356522      -437.2526581248 -1.84E-02
    18 OT SD       0.15E+00   51.2     0.00369491      -437.2641839494 -1.15E-02
    19 OT DIIS     0.15E+00   52.0     0.00254766      -437.2660458056 -1.86E-03
    20 OT DIIS     0.15E+00   53.8     0.00224093      -437.2738219843 -7.78E-03

  Leaving inner SCF loop after reaching    20 steps.


  Electronic density on regular grids:        -15.6434225422        8.3565774578
  Core density on regular grids:               24.0000000000       -0.0000000000
  Hard and soft densities (Lebedev):          -29.1028263887      -20.7462483863
  Total Rho_soft + Rho1_hard - Rho1_soft      -24.0000005445
  Total charge density (r-space):              -0.0000005445
  Total Rho_soft + Rho0_soft (g-space):        -0.0000003893

  Overlap energy of the core charge distribution:               0.00000219721401
  Self energy of the core charge distribution:               -203.87718666563003
  Core Hamiltonian energy:                                   -234.80606213125964
  Hartree energy:                                              58.46470906699646
  Exchange-correlation energy:                                 -6.28499329878987
  Hartree-Fock Exchange energy:                                -7.70646510447313

  GAPW| Exc from hard and soft atomic rho1:                   -17.59915204775735
  GAPW| local Eh = 1 center integrals:                        -25.46467400055871

  Total energy:                                              -437.27382198425823

  outer SCF iter =    1 RMS gradient =   0.22E-02 energy =       -437.2738219843

  ----------------------------------- OT ---------------------------------------
  Minimizer      : DIIS                : direct inversion
                                         in the iterative subspace
                                         using   7 DIIS vectors
                                         safer DIIS on
  Preconditioner : FULL_ALL            : diagonalization, state selective
  Precond_solver : DEFAULT
  stepsize       :    0.15000000                  energy_gap     :    0.08000000
  eps_taylor     :   0.10000E-15                  max_taylor     :             4
  ----------------------------------- OT ---------------------------------------

  Step     Update method      Time    Convergence         Total energy    Change
  ------------------------------------------------------------------------------
     1 OT DIIS     0.15E+00  147.3     0.01068976      -437.2753577321 -1.54E-03
     2 OT DIIS     0.15E+00   55.0     0.00578194      -437.2898664957 -1.45E-02
     3 OT DIIS     0.15E+00   49.0     0.00410039      -437.2940064489 -4.14E-03
     4 OT DIIS     0.15E+00   51.8     0.00076307      -437.2953658625 -1.36E-03
     5 OT DIIS     0.15E+00   51.6     0.00035640      -437.2954630259 -9.72E-05
     6 OT DIIS     0.15E+00   51.8     0.00009527      -437.2954911215 -2.81E-05
     7 OT DIIS     0.15E+00   51.0     0.00002399      -437.2954928326 -1.71E-06
     8 OT DIIS     0.15E+00   51.2     0.00000346      -437.2954929282 -9.56E-08
     9 OT DIIS     0.15E+00   52.6     0.00000079      -437.2954929299 -1.75E-09
    10 OT DIIS     0.15E+00   52.7     0.00000020      -437.2954929298  1.37E-10
    11 OT DIIS     0.15E+00   50.7     0.00000005      -437.2954929296  1.79E-10

  *** SCF run converged in    11 steps ***


  Electronic density on regular grids:        -15.6430648402        8.3569351598
  Core density on regular grids:               24.0000000000       -0.0000000000
  Hard and soft densities (Lebedev):          -28.9521070227      -20.5951713116
  Total Rho_soft + Rho1_hard - Rho1_soft      -24.0000005512
  Total charge density (r-space):              -0.0000005512
  Total Rho_soft + Rho0_soft (g-space):        -0.0000003960

  Overlap energy of the core charge distribution:               0.00000219721401
  Self energy of the core charge distribution:               -203.87718666563003
  Core Hamiltonian energy:                                   -234.80843779049462
  Hartree energy:                                              58.45699261418005
  Exchange-correlation energy:                                 -6.29158662340247
  Hartree-Fock Exchange energy:                                -7.71063302706526

  GAPW| Exc from hard and soft atomic rho1:                   -17.60149930645687
  GAPW| local Eh = 1 center integrals:                        -25.46314432795242

  Total energy:                                              -437.29549292960763

  outer SCF iter =    2 RMS gradient =   0.45E-07 energy =       -437.2954929296
  outer SCF loop converged in   2 iterations or   31 steps


 !-----------------------------------------------------------------------------!
                     Mulliken Population Analysis

 #  Atom  Element  Kind  Atomic population                           Net charge
       1     S        1         16.140563                             -0.140563
       2     C        2          6.049729                             -0.049729
       3     H        3          0.904857                              0.095143
       4     H        3          0.904851                              0.095149
 # Total charge                             24.000000                  0.000000

 !-----------------------------------------------------------------------------!

 !-----------------------------------------------------------------------------!
                           Hirshfeld Charges

  #Atom  Element  Kind  Ref Charge     Population                    Net charge
      1       S      1      16.000         16.583                        -0.583
      2       C      2       6.000          6.406                        -0.406
      3       H      3       1.000          0.504                         0.496
      4       H      3       1.000          0.504                         0.496

  Total Charge                                                            0.002
 !-----------------------------------------------------------------------------!

 *******************************************************************************
 **                                                                           **
 **         ######## #######   #######   ######## #######  ########           **
 **            ##    ##     ## ##     ## ##       ##   ##     ##              **
 **            ##    ##     ## ##     ## ######   #######     ##              **
 **            ##    ##     ## ##     ## ##       ##          ##              **
 **            ##    #######   #######   ##       ##          ##              **
 **                                                                           **
 *******************************************************************************
 KERNEL|                                                                    FULL
 FUNCTIONAL| PBE:
 FUNCTIONAL| J.P.Perdew, K.Burke, M.Ernzerhof, Phys. Rev. Letter, vol. 77, n 18,
 FUNCTIONAL|  pp. 3865-3868, (1996)sx=0.750sc=1.000{spin unpolarized}           
 KERNEL|                                                          Exact Exchange
 KERNEL| Spin symmetry of excitations                                    Triplet
 TDDFPT| Number of states calculated                                          10
 TDDFPT| Number of Davidson iterations                                        20
 TDDFPT| Davidson iteration convergence                                0.100E-07
 TDDFPT| Max. number of Krylov space vectors                                  60
 TDDFPT| Molecular Orbitals:        Spin       AOs       Occ      Virt     Total
 TDDFPT|                               1        99        12        87        99

 *******************************************************************************
 **                                                                           **
 **                            ####### ####### #######                        **
 **                        #   ##      ##   ## ##                             **
 **                       ###  ######  ##   ## ##                             **
 **                        #       ##  ##   ## ##                             **
 **                            ######  ####### #######                        **
 **                 Based on the xas module from Augustin Bussy               **
 *******************************************************************************
 
 -------------------------------------------------------------------------------
 -                      TDDFPT TRIPLET ENERGIES                                 -
 -------------------------------------------------------------------------------
 
 -------------------------------------------------------------------------------
 -                            TDDFPT Initial Guess                             -
 -------------------------------------------------------------------------------
          State         Occupied      ->      Virtual          Excitation
          number         orbital              orbital          energy (eV)
 -------------------------------------------------------------------------------
             1               12                   13              4.14287
             2               11                   13              6.57737
             3               12                   14              8.22081
             4               10                   13              8.61278
             5               12                   15              9.51615
             6               12                   16              9.89202
             7                9                   13             10.49151
             8               11                   14             10.65531
             9               11                   15             11.95064
            10               12                   17             12.04937

      Number of active states:                                       1044
 -------------------------------------------------------------------------------
 
 -------------------------------------------------------------------------------
 -                      TDDFPT WAVEFUNCTION OPTIMIZATION                       -
 -------------------------------------------------------------------------------

          Step            Time         Convergence           Conv. states
 -------------------------------------------------------------------------------

    State    Exc. energy (eV)      Convergence (eV)
        1       1.7233732            -2.4195E+00
        2       3.3172031            -3.2602E+00
        3       5.7892530            -2.4316E+00
        4       6.3650978            -2.2477E+00
        5       7.8121945            -1.7040E+00
        6       7.8730757            -2.0189E+00
        7       7.9308558            -2.5607E+00
        8       8.8133756            -1.8419E+00
        9      10.1694554            -1.7812E+00
       10      10.2658388            -1.7835E+00
 
             1           465.9          1.1981E-01                      0

    State    Exc. energy (eV)      Convergence (eV)
        1       1.6585654            -6.4808E-02
        2       3.1865977            -1.3061E-01
        3       5.6555973            -1.3366E-01
        4       6.2570995            -1.0800E-01
        5       7.6971937            -1.1500E-01
        6       7.7907373            -8.2338E-02
        7       7.7995638            -1.3129E-01
        8       8.6355384            -1.7784E-01
        9      10.0322517            -1.3720E-01
       10      10.1933658            -7.2473E-02
 
             2           454.9          6.5354E-03                      0

    State    Exc. energy (eV)      Convergence (eV)
        1       1.6584384            -1.2700E-04
        2       3.1861416            -4.5618E-04
        3       5.6546919            -9.0538E-04
        4       6.2560731            -1.0265E-03
        5       7.6969168            -2.7685E-04
        6       7.7891462            -1.5911E-03
        7       7.7961260            -3.4378E-03
        8       8.6153878            -2.0151E-02
        9      10.0226310            -9.6207E-03
[...]
 flops inhomo. stacks                     8294400     100.0%      0.0%      0.0%
 flops total                       396.290520E+06       2.1%     97.9%      0.0%
 flops max/rank                    201.888576E+06       3.1%     96.9%      0.0%
 matmuls inhomo. stacks                       342     100.0%      0.0%      0.0%
 matmuls total                              30973       1.1%     98.9%      0.0%
 number of processed stacks                 29373       1.2%     98.8%      0.0%
 average stack size                                     1.0       1.1       0.0
 marketing flops                   432.347328E+06
 -------------------------------------------------------------------------------
 # multiplications                           1931
 max memory usage/rank               1.582129E+09
 # max total images/rank                        2
 # max 3D layers                                1
 # MPI messages exchanged                 7167872
 MPI messages size (bytes):
  total size                         1.462587E+09
  min size                           0.000000E+00
  max size                          22.720000E+03
  average size                     204.047531E+00
 MPI breakdown and total messages size (bytes):
             size <=      128             6884112                        0
       128 < size <=     8192              252639                836612728
      8192 < size <=    32768               31121                625973960
     32768 < size <=   131072                   0                        0
    131072 < size <=  4194304                   0                        0
   4194304 < size <= 16777216                   0                        0
  16777216 < size                               0                        0
 -------------------------------------------------------------------------------

 *** WARNING in dbcsr_mm.F:291 :: Using a non-square number of MPI ranks ***
 *** might lead to poor performance. Used ranks: 128 Suggested: 121 256  ***

 -------------------------------------------------------------------------------
 -                                                                             -
 -                      DBCSR MESSAGE PASSING PERFORMANCE                      -
 -                                                                             -
 -------------------------------------------------------------------------------
 ROUTINE             CALLS      AVE VOLUME [Bytes]
 MP_Bcast               44                     12.
 MP_Allreduce         8497                      8.
 MP_Alltoall         29195                  37535.
 MP_ISend           122442                    769.
 MP_IRecv           119700                    386.
 -------------------------------------------------------------------------------

 -------------------------------------------------------------------------------
 -                                                                             -
 -                                DBM STATISTICS                               -
 -                                                                             -
 -------------------------------------------------------------------------------
    M  x    N  x    K                                          COUNT     PERCENT
 -------------------------------------------------------------------------------

 -------------------------------------------------------------------------------
 -                                                                             -
 -                                GRID STATISTICS                              -
 -                                                                             -
 -------------------------------------------------------------------------------
 LP    KERNEL             BACKEND                              COUNT     PERCENT
 2     collocate general  CPU                                  52736      13.09%
 2     integrate general  CPU                                  51712      12.84%
 1     collocate ortho    CPU                                  44892      11.14%
 1     integrate ortho    CPU                                  44118      10.95%
 2     collocate ortho    CPU                                  39846       9.89%
 2     integrate ortho    CPU                                  39159       9.72%
 0     collocate ortho    CPU                                  27492       6.82%
 0     integrate ortho    CPU                                  27018       6.71%
 3     collocate ortho    CPU                                  24360       6.05%
 3     integrate ortho    CPU                                  23940       5.94%
 4     collocate ortho    CPU                                  10092       2.51%
 4     integrate ortho    CPU                                   9918       2.46%
 5     collocate ortho    CPU                                   2784       0.69%
 5     integrate ortho    CPU                                   2736       0.68%
 6     collocate ortho    CPU                                    522       0.13%
 6     integrate ortho    CPU                                    513       0.13%
 0     collocate general  CPU                                    512       0.13%
 0     integrate general  CPU                                    512       0.13%
 -------------------------------------------------------------------------------

 MEMORY| Estimated peak process memory [MiB]                                1527

 -------------------------------------------------------------------------------
 ----                             MULTIGRID INFO                            ----
 -------------------------------------------------------------------------------
 count for grid        1:        1294316          cutoff [a.u.]          600.00
 count for grid        2:         225583          cutoff [a.u.]          200.00
 count for grid        3:         247407          cutoff [a.u.]           66.67
 count for grid        4:          62808          cutoff [a.u.]           22.22
 count for grid        5:           3200          cutoff [a.u.]            7.41
 total gridlevel count  :        1833314

 -------------------------------------------------------------------------------
 -                                                                             -
 -                         MESSAGE PASSING PERFORMANCE                         -
 -                                                                             -
 -------------------------------------------------------------------------------

 ROUTINE             CALLS      AVE VOLUME [Bytes]
 MP_Group                6
 MP_Bcast             2079                 262969.
 MP_Allreduce         9172                  18971.
 MP_Sync              1654
 MP_Alltoall          4576               18501922.
 MP_SendRecv         66294                 127152.
 MP_ISendRecv       144399                  69800.
 MP_Wait            185682
 MP_comm_split          91
 MP_ISend            34738                 826980.
 MP_IRecv            37354                 769014.
 -------------------------------------------------------------------------------


 -------------------------------------------------------------------------------
 -                                                                             -
 -                           R E F E R E N C E S                               -
 -                                                                             -
 -------------------------------------------------------------------------------
 
 CP2K version 2024.1 (Development Version), the CP2K developers group (2024).
 CP2K is freely available from https://www.cp2k.org/ .

 Kuehne,Thomas D.; Iannuzzi,Marcella; Del Ben,Mauro;
 Rybkin,Vladimir V.; Seewald,Patrick; Stein,Frederick; Laino,Teodoro;
 Khaliullin,Rustam Z.; Schuett,Ole; Schiffmann,Florian; Golze,Dorothea;
 Wilhelm,Jan; Chulkov,Sergey; Bani-Hashemian,Mohammad Hossein;
 Weber,Valery; Borstnik,Urban; Taillefumier,Mathieu;
 Jakobovits,Alice Shoshana; Lazzaro,Alfio; Pabst,Hans; Mueller,Tiziano;
 Schade,Robert; Guidon,Manuel; Andermatt,Samuel; Holmberg,Nico;
 Schenter,Gregory K.; Hehn,Anna; Bussy,Augustin; Belleflamme,Fabian;
 Tabacchi,Gloria; Gloess,Andreas; Lass,Michael; Bethune,Iain;
 Mundy,Christopher J.; Plessl,Christian; Watkins,Matt;
 VandeVondele,Joost; Krack,Matthias; Hutter,Juerg. 
 The Journal of Chemical Physics, 152 (19), (2020). 
 CP2K: An electronic structure and molecular dynamics software package -
 Quickstep: Efficient and accurate electronic structure calculations.
 https://doi.org/10.1063/5.0007045

 Schuett, Ole; Messmer, Peter; Hutter, Juerg; VandeVondele, Joost. 
 Electronic Structure Calculations on Graphics Processing Units, John
 Wiley & Sons, Ltd, 173-190 (2016). 
 GPU-Accelerated Sparse Matrix-Matrix Multiplication for
 Linear Scaling Density Functional Theory.
 https://doi.org/10.1002/9781118670712.ch8

 Heinecke, A; Henry, G; Hutchinson, M; Pabst, H. 
 Proceedings of Intl. Supercomputing Conference, 981-991 (2016). 
 LIBXSMM: Accelerating Small Matrix Multiplications
 by Runtime Code Generation.
 https://doi.org/10.1109/SC.2016.83

 Borstnik, U; VandeVondele, J; Weber, V; Hutter, J. 
 PARALLEL COMPUTING, 40 (5-6), 47-58 (2014). 
 Sparse matrix multiplication: The distributed block-compressed sparse
 row library.
 https://doi.org/10.1016/j.parco.2014.03.012

 Hutter, J; Iannuzzi, M; Schiffmann, F; VandeVondele, J. 
 WIREs Comput Mol Sci., 4 (1), 15-25 (2014). 
 CP2K: atomistic simulations of condensed matter systems.
 https://doi.org/10.1002/wcms.1159

 Guidon, M; Hutter, J; VandeVondele, J. 
 JOURNAL OF CHEMICAL THEORY AND COMPUTATION, 5 (11), 3010-3021 (2009). 
 Robust Periodic Hartree-Fock Exchange for Large-Scale Simulations Using
 Gaussian Basis Sets.
 https://doi.org/10.1021/ct900494g

 Guidon, M; Schiffmann, F; Hutter, J; VandeVondele, J. 
 JOURNAL OF CHEMICAL PHYSICS, 128 (21), 214104 (2008). 
 Ab initio molecular dynamics using hybrid density functionals.
 https://doi.org/10.1063/1.2931945

 Frigo, M; Johnson, SG. 
 PROCEEDINGS OF THE IEEE, 93 (2), 216-231 (2005). 
 The design and implementation of FFTW3.
 https://doi.org/10.1109/JPROC.2004.840301

 Iannuzzi, M; Chassaing, T; Wallman, T; Hutter, J. 
 CHIMIA, 59 (7-8), 499-503 (2005). 
 Ground and excited state density functional calculations with the
 Gaussian and augmented-plane-wave method.
 https://doi.org/10.2533/000942905777676164

 VandeVondele, J; Hutter, J. 
 JOURNAL OF CHEMICAL PHYSICS, 118 (10), 4365-4369 (2003). 
 An efficient orbital transformation method for electronic structure
 calculations.
 https://doi.org/10.1063/1.1543154

 Martin,Richard L.. 
 The Journal of Chemical Physics, 118 (11), 4775-4777 (2003). 
 Natural transition orbitals.
 https://doi.org/10.1063/1.1558471

 Lippert, G; Hutter, J; Parrinello, M. 
 THEORETICAL CHEMISTRY ACCOUNTS, 103 (2), 124-140 (1999). 
 The Gaussian and augmented-plane-wave density functional method for ab
 initio molecular dynamics simulations.
 https://doi.org/10.1007/s002140050523

 Krack, M; Parrinello, M. 
 PHYSICAL CHEMISTRY CHEMICAL PHYSICS, 2 (10), 2105-2112 (2000). 
 All-electron ab-initio molecular dynamics.
 https://doi.org/10.1039/b001167n

 Martyna, GJ; Tuckerman, ME. 
 JOURNAL OF CHEMICAL PHYSICS, 110 (6), 2810-2821 (1999). 
 A reciprocal space based method for treating long range interactions in
 ab initio and force-field-based calculations in clusters.
 https://doi.org/10.1063/1.477923

 Perdew, JP; Burke, K; Ernzerhof, M. 
 PHYSICAL REVIEW LETTERS, 77 (18), 3865-3868 (1996). 
 Generalized gradient approximation made simple.
 https://doi.org/10.1103/PhysRevLett.77.3865


 -------------------------------------------------------------------------------
 -                                                                             -
 -                                T I M I N G                                  -
 -                                                                             -
 -------------------------------------------------------------------------------
 SUBROUTINE                       CALLS  ASD         SELF TIME        TOTAL TIME
                                MAXIMUM       AVERAGE  MAXIMUM  AVERAGE  MAXIMUM
 CP2K                                 1  1.0    4.319    4.439 8992.853 8992.904
 qs_energies                          1  2.0    0.010    0.059 8927.146 8927.194
 qs_energies_properties               1  3.0    0.000    0.000 7172.005 7172.040
 tddfpt                               1  4.0    0.012    0.060 7172.005 7172.040
 tddfpt_soc_energies                  1  5.0    0.000    0.001 7138.675 7138.716
 tddfpt_energies                      2  6.0    0.008    0.068 7060.199 7060.347
 tddfpt_davidson_solver               4  7.0    0.032    0.112 6348.247 6348.295
 tddfpt_compute_Aop_evects           14  8.0    0.010    0.058 5594.820 5595.049
 fhxc_kernel                         14  9.0    0.025    0.066 3617.776 3617.968
 mp_waitall_1                    364600 14.3 2208.235 2260.566 2208.235 2260.566
 scf_env_do_scf                       1  3.0    0.001    0.013 1730.088 1730.134
 cp_dbcsr_sm_fm_multiply            886  9.5    0.016    0.041 1694.765 1709.057
 tddfpt_apply_hfx                    14  9.0    0.003    0.016 1686.293 1686.421
 qs_rho_update_rho_low              174  9.1    0.016    0.071 1618.132 1621.812
 scf_env_do_scf_inner_loop           31  4.0    0.016    0.057 1582.305 1582.441
 calculate_rho_elec                 174 10.1    0.925    1.413 1485.008 1487.137
 density_rs2pw                      174 11.1    0.016    0.051 1447.271 1452.965
 integrate_v_rspace                 171  9.8    0.008    0.044 1419.153 1423.229
 dbcsr_complete_redistribute       2894 11.5    0.101    0.246 1374.846 1406.363
 potential_pw2rs                    171 10.8    0.063    0.115 1370.934 1380.919
 transfer_pw2rs                     957 11.7    0.012    0.044 1244.970 1254.246
 transfer_rs2pw                     974 12.0    0.013    0.037 1219.007 1227.119
 integrate_four_center              311 10.8    0.096    0.161 1188.055 1191.368
 mp_sendrecv_dv                   66294 14.1 1052.212 1078.384 1052.212 1078.384
 dbcsr_multiply_generic            1931 10.9    0.085    0.147 1013.727 1035.938
 tddft_hfx_matrix                   280 10.0    0.017    0.090 1013.247 1016.327
 copy_dbcsr_to_fm                   972 10.4    0.011    0.024  993.107 1008.112
 pw_transfer                       3828 12.1    0.505    0.665  868.442  880.189
 fft_wrap_pw1pw2                   3523 13.2    0.047    0.105  866.535  878.064
 fft3d_ps                          3523 15.2  106.114  119.497  793.755  805.806
 cp_fm_syevd                         91  9.4    0.005    0.045  712.063  713.286
 qs_scf_new_mos                      31  5.0    0.001    0.024  701.541  702.146
 qs_scf_loop_do_ot                   31  6.0    0.000    0.000  701.540  702.146
 ot_scf_mini                         31  7.0    0.001    0.013  681.344  681.858
 copy_fm_to_dbcsr                  1918 10.6    0.008    0.020  641.435  673.247
 mp_alltoall_d11v                 12036 12.7  615.179  659.564  615.179  659.564
 fft_wrap_pw1pw2_600               2142 14.3   10.634   11.741  631.769  642.460
 tddfpt_print_nto_analysis            2  7.0    0.018    0.063  624.995  625.432
 qs_ks_update_qs_env                 33  5.0    0.000    0.013  622.369  623.989
 rebuild_ks_matrix                   31  6.0    0.006    0.047  618.403  619.898
 qs_ks_build_kohn_sham_matrix        31  7.0    0.022    0.096  618.398  619.898
 integrate_four_center_getP         311 11.8    0.062    0.171  601.218  602.238
 cp_fm_redistribute_end              91 10.4  322.312  587.499  330.247  591.552
 mp_alltoall_z22v                  3523 17.2  557.321  580.837  557.321  580.837
 integrate_four_center_dist_KS      311 11.8    0.061    0.149  538.506  539.369
 cp_fm_syevd_base                    91 10.4  255.677  518.031  255.677  518.031
 transfer_pw2rs_70                  171 12.8    8.189   14.036  473.642  515.472
 tddfpt_orthonormalize_psi1_psi      16  7.9    0.010    0.051  501.178  505.054
 mp_alltoall_i11v                  9745 12.5  496.531  497.419  496.531  497.419
 transfer_rs2pw_70                  174 13.1    5.516    9.378  451.196  480.180
 mp_sum_l                          8115 11.3  461.012  478.736  461.012  478.736
 tddfpt_apply_xc_analytic           140 10.0    2.132    2.620  433.439  435.952
 cp_fm_geeig                         20  8.0    0.007    0.045  423.997  424.263
 xc_pw_derive                      1245 11.7    0.036    0.110  384.768  391.117
 transfer_pw2rs_30                  171 12.8    0.583    4.328  364.833  388.771
 transfer_rs2pw_30                  174 13.1    0.605    1.872  354.494  379.796
 cp_dbcsr_sm_fm_multiply_core       886 10.5    0.002    0.015  357.066  377.421
 ot_mini                             31  8.0    0.006    0.035  336.007  336.720
 mp_cart_sub                       1952 12.4  303.645  304.990  303.645  304.990
 yz_to_x                           1313 16.6   11.989   13.268  281.416  298.804
 qs_ot_get_p                         33  7.9    0.001    0.024  294.014  294.253
 multiply_cannon                   1931 11.9    0.134    0.214  271.333  292.189
 tddfpt_apply_energy_diff            14  9.0    0.001    0.001  290.740  290.898
 cp_dbcsr_plus_fm_fm_t_native       141 10.0    0.008    0.048  278.330  280.536
 qs_ot_get_derivative                31  9.0    0.006    0.035  279.100  279.613
 dbcsr_desymmetrize_deep            973 11.4    0.017    0.039  261.397  276.952
 x_to_yz                           1520 15.9   19.161   29.370  271.232  276.675
 mp_sum_dv                         5011 10.5  266.323  275.251  266.323  275.251
 mp_sync                           1654 12.5  232.472  274.142  232.472  274.142
 transfer_rs2pw_10                  174 13.1    0.187    1.040  252.829  264.748
 sum_up_and_integrate                31  8.0    0.001    0.014  256.918  257.588
 transfer_pw2rs_10                  171 12.8    0.130    0.210  247.864  257.069
 mp_waitany                       34738 13.8  191.941  247.537  191.941  247.537
 mp_sum_dm                         1913 11.0  238.671  243.414  238.671  243.414
 xc_calc_2nd_deriv_analytical       700 11.1   53.709   60.338  235.956  237.300
 cp_fm_trace_a1b1t1_aa             3880  9.0    0.010    0.020  223.065  226.413
 qs_ot_p2m_diag                      30  9.0    0.006    0.038  225.595  225.993
 mp_alltoall_i22                   3897 12.5  197.186  218.170  197.186  218.170
 xc_pw_divergence                   171 11.6    0.012    0.034  211.151  216.884
 cp_dbcsr_syevd                      34  9.7    0.023    0.116  212.230  213.488
 make_m2s                          3862 11.9    0.054    0.178  194.505  213.368
 make_images                       3862 12.9    0.086    0.232  194.382  213.227
 make_images_sizes                 3862 13.9    0.004    0.017  193.173  203.530
 mp_alltoall_i44                   3862 14.9  193.168  203.526  193.168  203.526
 qs_ot_get_derivative_diag           28 10.0    0.001    0.012  195.815  196.299
 multiply_cannon_loop              1931 12.9    0.119    0.157  172.393  193.265
 tddfpt_compute_residual_vects       10  8.0    0.001    0.001  183.777  183.998
 -------------------------------------------------------------------------------

 The number of warnings for this run is : 1
 
 -------------------------------------------------------------------------------
  **** **** ******  **  PROGRAM ENDED AT                 2024-02-01 11:38:45.996
 ***** ** ***  *** **   PROGRAM RAN ON                               nesh-clk464
 **    ****   ******    PROGRAM RAN BY                                  suphc355
 ***** **    ** ** **   PROGRAM PROCESS ID                                128585
  **** **  *******  **  PROGRAM STOPPED IN /gxfs_work/cau/suphc355/homologes/CH2
                                           X/AE/S
