 DBCSR| CPU Multiplication driver                                           XSMM (U)
 DBCSR| Multrec recursion limit                                              512 (U)
 DBCSR| Multiplication stack size                                           1000 (D)
 DBCSR| Maximum elements for images                                    UNLIMITED (U)
 DBCSR| Multiplicative factor virtual images                                   1 (U)
 DBCSR| Use multiplication densification                                       T (D)
 DBCSR| Multiplication size stacks                                             3 (U)
 DBCSR| Use memory pool for CPU allocation                                     F (U)
 DBCSR| Number of 3D layers                                               SINGLE (U)
 DBCSR| Use MPI memory allocation                                              F (U)
 DBCSR| Use RMA algorithm                                                      F (U)
 DBCSR| Use Communication thread                                               T (U)
 DBCSR| Communication thread load                                             87 (D)
 DBCSR| MPI: My process id                                                     0
 DBCSR| MPI: Number of processes                                             128
 DBCSR| OMP: Current number of threads                                         1
 DBCSR| OMP: Max number of threads                                             1
 DBCSR| Split modifier for TAS multiplication algorithm                  1.0E+00 (U)


  **** **** ******  **  PROGRAM STARTED AT               2024-02-02 09:16:56.796
 ***** ** ***  *** **   PROGRAM STARTED ON                           nesh-clk526
 **    ****   ******    PROGRAM STARTED BY                              suphc355
 ***** **    ** ** **   PROGRAM PROCESS ID                               3657735
  **** **  *******  **  PROGRAM STARTED IN /gxfs_work/cau/suphc355/homologes/CH2
                                           X/AE/S

 CP2K| version string:                 CP2K version 2024.1 (Development Version)
 CP2K| source code revision number:                                  git:b6f9133
 CP2K| cp2kflags: omp libint fftw3 libxc libgrpp parallel mpi_f08 scalapack cosm
 CP2K|            a xsmm spglib mkl
 CP2K| is freely available from                            https://www.cp2k.org/
 CP2K| Program compiled at                          Fr 26. Jan 09:14:30 CET 2024
 CP2K| Program compiled on                                           nesh-login3
 CP2K| Program compiled for                                                local
 CP2K| Data directory path            /gxfs_home/cau/suphc355/software/cp2k/data
 CP2K| Input file name                                                AE_aug.inp
 
 GLOBAL| Force Environment number                                              1
 GLOBAL| Basis set file name                                  ../../../basis_aug
 GLOBAL| Potential file name                                           POTENTIAL
 GLOBAL| MM Potential file name                                     MM_POTENTIAL
 GLOBAL| Coordinate file name                                            opt.xyz
 GLOBAL| Method name                                                        CP2K
 GLOBAL| Project name                                                CH2S_AE_aug
 GLOBAL| Run type                                                         ENERGY
 GLOBAL| FFT library                                                       FFTW3
 GLOBAL| Diagonalization library                                       ScaLAPACK
 GLOBAL| DGEMM library                                                      BLAS
 GLOBAL| Orthonormality check for eigenvectors                          DISABLED
 GLOBAL| Matrix multiplication library                                     COSMA
 GLOBAL| All-to-all communication in single precision                          F
 GLOBAL| FFTs using library dependent lengths                                  F
 GLOBAL| Grid backend                                                       AUTO
 GLOBAL| Global print level                                               MEDIUM
 GLOBAL| MPI I/O enabled                                                       T
 GLOBAL| Total number of message passing processes                           128
 GLOBAL| Number of threads for this process                                    1
 GLOBAL| This output is from process                                           0
 GLOBAL| Stack size for threads created by OpenMP (OMP_STACKSIZE)        default
 GLOBAL| CPU model name                Intel(R) Xeon(R) Gold 6226R CPU @ 2.90GHz
 GLOBAL| CPUID                                                              1003

 MEMORY| system memory details [Kb]
 MEMORY|                        rank 0           min           max       average
 MEMORY| MemTotal            196680928     196680928     196683224     196682649
 MEMORY| MemFree             176959916     176817716     177009808     176947796
 MEMORY| Buffers                210332        188060        226288        211141
 MEMORY| Cached                 556900        530920        712324        626058
 MEMORY| Slab                   666080        662592        838400        731900
 MEMORY| SReclaimable           122388        122388        138972        128431
 MEMORY| MemLikelyFree       177849536     177849536     178027284     177913426


 *** Fundamental physical constants (SI units) ***

 *** Literature: B. J. Mohr and B. N. Taylor,
 ***             CODATA recommended values of the fundamental physical
 ***             constants: 2006, Web Version 5.1
 ***             http://physics.nist.gov/constants

 Speed of light in vacuum [m/s]                             2.99792458000000E+08
 Magnetic constant or permeability of vacuum [N/A**2]       1.25663706143592E-06
 Electric constant or permittivity of vacuum [F/m]          8.85418781762039E-12
 Planck constant (h) [J*s]                                  6.62606896000000E-34
 Planck constant (h-bar) [J*s]                              1.05457162825177E-34
 Elementary charge [C]                                      1.60217648700000E-19
 Electron mass [kg]                                         9.10938215000000E-31
 Electron g factor [ ]                                     -2.00231930436220E+00
 Proton mass [kg]                                           1.67262163700000E-27
 Fine-structure constant                                    7.29735253760000E-03
 Rydberg constant [1/m]                                     1.09737315685270E+07
 Avogadro constant [1/mol]                                  6.02214179000000E+23
 Boltzmann constant [J/K]                                   1.38065040000000E-23
 Atomic mass unit [kg]                                      1.66053878200000E-27
 Bohr radius [m]                                            5.29177208590000E-11

 *** Conversion factors ***

 [u] -> [a.u.]                                              1.82288848426455E+03
 [Angstrom] -> [Bohr] = [a.u.]                              1.88972613288564E+00
 [a.u.] = [Bohr] -> [Angstrom]                              5.29177208590000E-01
 [a.u.] -> [s]                                              2.41888432650478E-17
 [a.u.] -> [fs]                                             2.41888432650478E-02
 [a.u.] -> [J]                                              4.35974393937059E-18
 [a.u.] -> [N]                                              8.23872205491840E-08
 [a.u.] -> [K]                                              3.15774647902944E+05
 [a.u.] -> [kJ/mol]                                         2.62549961709828E+03
 [a.u.] -> [kcal/mol]                                       6.27509468713739E+02
 [a.u.] -> [Pa]                                             2.94210107994716E+13
 [a.u.] -> [bar]                                            2.94210107994716E+08
 [a.u.] -> [atm]                                            2.90362800883016E+08
 [a.u.] -> [eV]                                             2.72113838565563E+01
 [a.u.] -> [Hz]                                             6.57968392072181E+15
 [a.u.] -> [1/cm] (wave numbers)                            2.19474631370540E+05
 [a.u./Bohr**2] -> [1/cm]                                   5.14048714338585E+03
 

 CELL_TOP| Volume [angstrom^3]:                                      8000.000000
 CELL_TOP| Vector a [angstrom    20.000     0.000     0.000   |a| =    20.000000
 CELL_TOP| Vector b [angstrom     0.000    20.000     0.000   |b| =    20.000000
 CELL_TOP| Vector c [angstrom     0.000     0.000    20.000   |c| =    20.000000
 CELL_TOP| Angle (b,c), alpha [degree]:                                90.000000
 CELL_TOP| Angle (a,c), beta  [degree]:                                90.000000
 CELL_TOP| Angle (a,b), gamma [degree]:                                90.000000
 CELL_TOP| Numerically orthorhombic:                                         YES
 CELL_TOP| Periodicity                                                      NONE
 
 GENERATE|  Preliminary Number of Bonds generated:                             0
 GENERATE|  Achieved consistency in connectivity generation.

 CELL| Volume [angstrom^3]:                                          8000.000000
 CELL| Vector a [angstrom]:      20.000     0.000     0.000   |a| =    20.000000
 CELL| Vector b [angstrom]:       0.000    20.000     0.000   |b| =    20.000000
 CELL| Vector c [angstrom]:       0.000     0.000    20.000   |c| =    20.000000
 CELL| Angle (b,c), alpha [degree]:                                    90.000000
 CELL| Angle (a,c), beta  [degree]:                                    90.000000
 CELL| Angle (a,b), gamma [degree]:                                    90.000000
 CELL| Numerically orthorhombic:                                             YES
 CELL| Periodicity                                                          NONE

 CELL_REF| Volume [angstrom^3]:                                      8000.000000
 CELL_REF| Vector a [angstrom    20.000     0.000     0.000   |a| =    20.000000
 CELL_REF| Vector b [angstrom     0.000    20.000     0.000   |b| =    20.000000
 CELL_REF| Vector c [angstrom     0.000     0.000    20.000   |c| =    20.000000
 CELL_REF| Angle (b,c), alpha [degree]:                                90.000000
 CELL_REF| Angle (a,c), beta  [degree]:                                90.000000
 CELL_REF| Angle (a,b), gamma [degree]:                                90.000000
 CELL_REF| Numerically orthorhombic:                                         YES
 CELL_REF| Periodicity                                                      NONE

 *******************************************************************************
 *******************************************************************************
 **                                                                           **
 **     #####                         ##              ##                      **
 **    ##   ##            ##          ##              ##                      **
 **   ##     ##                       ##            ######                    **
 **   ##     ##  ##   ##  ##   #####  ##  ##   ####   ##    #####    #####    **
 **   ##     ##  ##   ##  ##  ##      ## ##   ##      ##   ##   ##  ##   ##   **
 **   ##  ## ##  ##   ##  ##  ##      ####     ###    ##   ######   ######    **
 **    ##  ###   ##   ##  ##  ##      ## ##      ##   ##   ##       ##        **
 **     #######   #####   ##   #####  ##  ##  ####    ##    #####   ##        **
 **           ##                                                    ##        **
 **                                                                           **
 **                                                ... make the atoms dance   **
 **                                                                           **
 **            Copyright (C) by CP2K developers group (2000-2024)             **
 **                      J. Chem. Phys. 152, 194103 (2020)                    **
 **                                                                           **
 *******************************************************************************

 DFT| Spin restricted Kohn-Sham (RKS) calculation                            RKS
 DFT| Multiplicity                                                             1
 DFT| Number of spin states                                                    1
 DFT| Charge                                                                   0
 DFT| Self-interaction correction (SIC)                                       NO
 DFT| Cutoffs: density                                              1.000000E-10
 DFT|          gradient                                             1.000000E-10
 DFT|          tau                                                  1.000000E-10
 DFT|          cutoff_smoothing_range                               0.000000E+00
 DFT| XC density smoothing                                                  NONE
 DFT| XC derivatives                                                          PW

 FUNCTIONAL| PBE:
 FUNCTIONAL| J.P.Perdew, K.Burke, M.Ernzerhof, Phys. Rev. Letter, vol. 77, n 18,
 FUNCTIONAL|  pp. 3865-3868, (1996)sx=0.750sc=1.000{spin unpolarized}           


 QS| Method:                                                                GAPW
 QS| Density plane wave grid type                        NON-SPHERICAL FULLSPACE
 QS| Number of grid levels:                                                    5
 QS| Density cutoff [a.u.]:                                                600.0
 QS| Multi grid cutoff [a.u.]: 1) grid level                               600.0
 QS|                           2) grid level                               200.0
 QS|                           3) grid level                                66.7
 QS|                           4) grid level                                22.2
 QS|                           5) grid level                                 7.4
 QS| Grid level progression factor:                                          3.0
 QS| Relative density cutoff [a.u.]:                                        40.0
 QS| Interaction thresholds: eps_pgf_orb:                                1.0E-30
 QS|                         eps_filter_matrix:                          0.0E+00
 QS|                         eps_core_charge:                            1.0E-17
 QS|                         eps_rho_gspace:                             1.0E-15
 QS|                         eps_rho_rspace:                             1.0E-15
 QS|                         eps_gvg_rspace:                             3.2E-08
 QS|                         eps_ppl:                                    1.0E-02
 QS|                         eps_ppnl:                                   3.2E-10
 QS| GAPW|      One center basis from orbital basis primitives
 QS| GAPW|                   eps_fit:                                    1.0E-04
 QS| GAPW|                   eps_iso:                                    1.0E-12
 QS| GAPW|                   eps_svd:                                    1.0E-08
 QS| GAPW|                   eps_cpc:                                    1.0E-15
 QS| GAPW|   atom-r-grid: quadrature:                                     GC_LOG
 QS| GAPW|      atom-s-grid:  max l :                                          8
 QS| GAPW|      max_l_rho0 :                                                   2


 ATOMIC KIND INFORMATION

  1. Atomic kind: S                                     Number of atoms:       1

     Orbital Basis Set                                               aug-cc-pVQZ

       Number of orbital shell sets:                                          10
       Number of orbital shells:                                              22
       Number of primitive Cartesian functions:                               38
       Number of Cartesian basis functions:                                  109
       Number of spherical basis functions:                                   84
       Norm type:                                                              2

       Normalised Cartesian orbitals:

                        Set   Shell   Orbital            Exponent    Coefficient

                          1       1    1s           727800.000000       0.419157
                                                    109000.000000       0.784464
                                                     24800.000000       1.358160
                                                      7014.000000       2.220672
                                                      2278.000000       3.453924
                                                       814.700000       5.054600
                                                       313.400000       6.662782
                                                       127.700000       7.267566
                                                        54.480000       5.499624
                                                        23.850000       2.041180
                                                         9.428000       0.167699
                                                         4.290000      -0.008048
                                                         1.909000       0.002524
                                                         0.627000      -0.000420
                                                         0.287300       0.000125
                                                         0.117200      -0.000018

                          1       2    2s           727800.000000      -0.115821
                                                    109000.000000      -0.216607
                                                     24800.000000      -0.375828
                                                      7014.000000      -0.615074
                                                      2278.000000      -0.966305
                                                       814.700000      -1.439541
                                                       313.400000      -2.001386
                                                       127.700000      -2.432752
                                                        54.480000      -2.388139
                                                        23.850000      -1.302634
                                                         9.428000       0.490160
                                                         4.290000       1.200040
                                                         1.909000       0.499763
                                                         0.627000       0.019555
                                                         0.287300      -0.002042
                                                         0.117200       0.000275

                          1       3    3s           727800.000000       0.000000
                                                    109000.000000       0.000000
                                                     24800.000000       0.000000
                                                      7014.000000       0.000000
                                                      2278.000000       0.000000
                                                       814.700000       0.000000
                                                       313.400000       0.000000
                                                       127.700000       0.000000
                                                        54.480000       0.000000
                                                        23.850000       0.000000
                                                         9.428000       0.000000
                                                         4.290000       0.000000
                                                         1.909000       0.000000
                                                         0.627000       0.502182
                                                         0.287300       0.000000
                                                         0.117200       0.000000

                          1       4    4s           727800.000000       0.000000
                                                    109000.000000       0.000000
                                                     24800.000000       0.000000
                                                      7014.000000       0.000000
                                                      2278.000000       0.000000
                                                       814.700000       0.000000
                                                       313.400000       0.000000
                                                       127.700000       0.000000
                                                        54.480000       0.000000
                                                        23.850000       0.000000
                                                         9.428000       0.000000
                                                         4.290000       0.000000
                                                         1.909000       0.000000
                                                         0.627000       0.000000
                                                         0.287300       0.279680
                                                         0.117200       0.000000

                          1       5    5s           727800.000000       0.033637
                                                    109000.000000       0.062827
                                                     24800.000000       0.109222
                                                      7014.000000       0.178353
                                                      2278.000000       0.281267
                                                       814.700000       0.418208
                                                       313.400000       0.586813
                                                       127.700000       0.716502
                                                        54.480000       0.727127
                                                        23.850000       0.407687
                                                         9.428000      -0.163171
                                                         4.290000      -0.532933
                                                         1.909000      -0.385618
                                                         0.627000       0.132474
                                                         0.287300       0.186505
                                                         0.117200       0.041179

                          1       6    6s           727800.000000       0.000000
                                                    109000.000000       0.000000
                                                     24800.000000       0.000000
                                                      7014.000000       0.000000
                                                      2278.000000       0.000000
                                                       814.700000       0.000000
                                                       313.400000       0.000000
                                                       127.700000       0.000000
                                                        54.480000       0.000000
                                                        23.850000       0.000000
                                                         9.428000       0.000000
                                                         4.290000       0.000000
                                                         1.909000       0.000000
                                                         0.627000       0.000000
                                                         0.287300       0.000000
                                                         0.117200       0.142760

                          2       1    1s                0.042800       0.067065

                          3       1    1px            1546.000000       6.096361
                                                       366.400000       8.627460
                                                       118.400000      11.042915
                                                        44.530000      12.167369
                                                        18.380000      10.704304
                                                         7.965000       6.710904
                                                         3.541000       2.621971
                                                         1.591000       0.435360
                                                         0.620500       0.011900
                                                         0.242000       0.000016
                                                         0.090140       0.000029
                          3       1    1py            1546.000000       6.096361
                                                       366.400000       8.627460
                                                       118.400000      11.042915
                                                        44.530000      12.167369
                                                        18.380000      10.704304
                                                         7.965000       6.710904
                                                         3.541000       2.621971
                                                         1.591000       0.435360
                                                         0.620500       0.011900
                                                         0.242000       0.000016
                                                         0.090140       0.000029
                          3       1    1pz            1546.000000       6.096361
                                                       366.400000       8.627460
                                                       118.400000      11.042915
                                                        44.530000      12.167369
                                                        18.380000      10.704304
                                                         7.965000       6.710904
                                                         3.541000       2.621971
                                                         1.591000       0.435360
                                                         0.620500       0.011900
                                                         0.242000       0.000016
                                                         0.090140       0.000029

                          3       2    2px            1546.000000       0.000000
                                                       366.400000       0.000000
                                                       118.400000       0.000000
                                                        44.530000       0.000000
                                                        18.380000       0.000000
                                                         7.965000       0.000000
                                                         3.541000       0.000000
                                                         1.591000       0.000000
                                                         0.620500       0.784996
                                                         0.242000       0.000000
                                                         0.090140       0.000000
                          3       2    2py            1546.000000       0.000000
                                                       366.400000       0.000000
                                                       118.400000       0.000000
                                                        44.530000       0.000000
                                                        18.380000       0.000000
                                                         7.965000       0.000000
                                                         3.541000       0.000000
                                                         1.591000       0.000000
                                                         0.620500       0.784996
                                                         0.242000       0.000000
                                                         0.090140       0.000000
                          3       2    2pz            1546.000000       0.000000
                                                       366.400000       0.000000
                                                       118.400000       0.000000
                                                        44.530000       0.000000
                                                        18.380000       0.000000
                                                         7.965000       0.000000
                                                         3.541000       0.000000
                                                         1.591000       0.000000
                                                         0.620500       0.784996
                                                         0.242000       0.000000
                                                         0.090140       0.000000

                          3       3    3px            1546.000000      -1.562979
                                                       366.400000      -2.190350
                                                       118.400000      -2.858551
                                                        44.530000      -3.158675
                                                        18.380000      -2.907508
                                                         7.965000      -1.831658
                                                         3.541000      -0.818282
                                                         1.591000       0.023514
                                                         0.620500       0.281689
                                                         0.242000       0.127217
                                                         0.090140       0.017521
                          3       3    3py            1546.000000      -1.562979
                                                       366.400000      -2.190350
                                                       118.400000      -2.858551
                                                        44.530000      -3.158675
                                                        18.380000      -2.907508
                                                         7.965000      -1.831658
                                                         3.541000      -0.818282
                                                         1.591000       0.023514
                                                         0.620500       0.281689
                                                         0.242000       0.127217
                                                         0.090140       0.017521
                          3       3    3pz            1546.000000      -1.562979
                                                       366.400000      -2.190350
                                                       118.400000      -2.858551
                                                        44.530000      -3.158675
                                                        18.380000      -2.907508
                                                         7.965000      -1.831658
                                                         3.541000      -0.818282
                                                         1.591000       0.023514
                                                         0.620500       0.281689
                                                         0.242000       0.127217
                                                         0.090140       0.017521

                          3       4    4px            1546.000000       0.000000
                                                       366.400000       0.000000
                                                       118.400000       0.000000
                                                        44.530000       0.000000
                                                        18.380000       0.000000
                                                         7.965000       0.000000
                                                         3.541000       0.000000
                                                         1.591000       0.000000
                                                         0.620500       0.000000
                                                         0.242000       0.241941
                                                         0.090140       0.000000
                          3       4    4py            1546.000000       0.000000
                                                       366.400000       0.000000
                                                       118.400000       0.000000
                                                        44.530000       0.000000
                                                        18.380000       0.000000
                                                         7.965000       0.000000
                                                         3.541000       0.000000
                                                         1.591000       0.000000
                                                         0.620500       0.000000
                                                         0.242000       0.241941
                                                         0.090140       0.000000
                          3       4    4pz            1546.000000       0.000000
                                                       366.400000       0.000000
                                                       118.400000       0.000000
                                                        44.530000       0.000000
                                                        18.380000       0.000000
                                                         7.965000       0.000000
                                                         3.541000       0.000000
                                                         1.591000       0.000000
                                                         0.620500       0.000000
                                                         0.242000       0.241941
                                                         0.090140       0.000000

                          3       5    5px            1546.000000       0.000000
                                                       366.400000       0.000000
                                                       118.400000       0.000000
                                                        44.530000       0.000000
                                                        18.380000       0.000000
                                                         7.965000       0.000000
                                                         3.541000       0.000000
                                                         1.591000       0.000000
                                                         0.620500       0.000000
                                                         0.242000       0.000000
                                                         0.090140       0.070402
                          3       5    5py            1546.000000       0.000000
                                                       366.400000       0.000000
                                                       118.400000       0.000000
                                                        44.530000       0.000000
                                                        18.380000       0.000000
                                                         7.965000       0.000000
                                                         3.541000       0.000000
                                                         1.591000       0.000000
                                                         0.620500       0.000000
                                                         0.242000       0.000000
                                                         0.090140       0.070402
                          3       5    5pz            1546.000000       0.000000
                                                       366.400000       0.000000
                                                       118.400000       0.000000
                                                        44.530000       0.000000
                                                        18.380000       0.000000
                                                         7.965000       0.000000
                                                         3.541000       0.000000
                                                         1.591000       0.000000
                                                         0.620500       0.000000
                                                         0.242000       0.000000
                                                         0.090140       0.070402

                          4       1    1px               0.031700       0.019066
                          4       1    1py               0.031700       0.019066
                          4       1    1pz               0.031700       0.019066

                          5       1    1dx2              1.250000       2.432215
                                                         0.504000       0.000000
                                                         0.203000       0.000000
                          5       1    1dxy              1.250000       4.212720
                                                         0.504000       0.000000
                                                         0.203000       0.000000
                          5       1    1dxz              1.250000       4.212720
                                                         0.504000       0.000000
                                                         0.203000       0.000000
                          5       1    1dy2              1.250000       2.432215
                                                         0.504000       0.000000
                                                         0.203000       0.000000
                          5       1    1dyz              1.250000       4.212720
                                                         0.504000       0.000000
                                                         0.203000       0.000000
                          5       1    1dz2              1.250000       2.432215
                                                         0.504000       0.000000
                                                         0.203000       0.000000

                          5       2    2dx2              1.250000       0.000000
                                                         0.504000       0.496207
                                                         0.203000       0.000000
                          5       2    2dxy              1.250000       0.000000
                                                         0.504000       0.859456
                                                         0.203000       0.000000
                          5       2    2dxz              1.250000       0.000000
                                                         0.504000       0.859456
                                                         0.203000       0.000000
                          5       2    2dy2              1.250000       0.000000
                                                         0.504000       0.496207
                                                         0.203000       0.000000
                          5       2    2dyz              1.250000       0.000000
                                                         0.504000       0.859456
                                                         0.203000       0.000000
                          5       2    2dz2              1.250000       0.000000
                                                         0.504000       0.496207
                                                         0.203000       0.000000

                          5       3    3dx2              1.250000       0.000000
                                                         0.504000       0.000000
                                                         0.203000       0.101048
                          5       3    3dxy              1.250000       0.000000
                                                         0.504000       0.000000
                                                         0.203000       0.175020
                          5       3    3dxz              1.250000       0.000000
                                                         0.504000       0.000000
                                                         0.203000       0.175020
                          5       3    3dy2              1.250000       0.000000
                                                         0.504000       0.000000
                                                         0.203000       0.101048
                          5       3    3dyz              1.250000       0.000000
                                                         0.504000       0.000000
                                                         0.203000       0.175020
                          5       3    3dz2              1.250000       0.000000
                                                         0.504000       0.000000
                                                         0.203000       0.101048

                          6       1    1dx2              0.074800       0.017609
                          6       1    1dxy              0.074800       0.030500
                          6       1    1dxz              0.074800       0.030500
                          6       1    1dy2              0.074800       0.017609
                          6       1    1dyz              0.074800       0.030500
                          6       1    1dz2              0.074800       0.017609

                          7       1    1fx3              0.869000       1.073369
                                                         0.335000       0.000000
                          7       1    1fx2y             0.869000       2.400125
                                                         0.335000       0.000000
                          7       1    1fx2z             0.869000       2.400125
                                                         0.335000       0.000000
                          7       1    1fxy2             0.869000       2.400125
                                                         0.335000       0.000000
                          7       1    1fxyz             0.869000       4.157139
                                                         0.335000       0.000000
                          7       1    1fxz2             0.869000       2.400125
                                                         0.335000       0.000000
                          7       1    1fy3              0.869000       1.073369
                                                         0.335000       0.000000
                          7       1    1fy2z             0.869000       2.400125
                                                         0.335000       0.000000
                          7       1    1fyz2             0.869000       2.400125
                                                         0.335000       0.000000
                          7       1    1fz3              0.869000       1.073369
                                                         0.335000       0.000000

                          7       2    2fx3              0.869000       0.000000
                                                         0.335000       0.125691
                          7       2    2fx2y             0.869000       0.000000
                                                         0.335000       0.281054
                          7       2    2fx2z             0.869000       0.000000
                                                         0.335000       0.281054
                          7       2    2fxy2             0.869000       0.000000
                                                         0.335000       0.281054
                          7       2    2fxyz             0.869000       0.000000
                                                         0.335000       0.486800
                          7       2    2fxz2             0.869000       0.000000
                                                         0.335000       0.281054
                          7       2    2fy3              0.869000       0.000000
                                                         0.335000       0.125691
                          7       2    2fy2z             0.869000       0.000000
                                                         0.335000       0.281054
                          7       2    2fyz2             0.869000       0.000000
                                                         0.335000       0.281054
                          7       2    2fz3              0.869000       0.000000
                                                         0.335000       0.125691

                          8       1    1fx3              0.140000       0.017650
                          8       1    1fx2y             0.140000       0.039466
                          8       1    1fx2z             0.140000       0.039466
                          8       1    1fxy2             0.140000       0.039466
                          8       1    1fxyz             0.140000       0.068358
                          8       1    1fxz2             0.140000       0.039466
                          8       1    1fy3              0.140000       0.017650
                          8       1    1fy2z             0.140000       0.039466
                          8       1    1fyz2             0.140000       0.039466
                          8       1    1fz3              0.140000       0.017650

                          9       1    1gx4              0.683000       0.390025
                          9       1    1gx3y             0.683000       1.031909
                          9       1    1gx3z             0.683000       1.031909
                          9       1    1gx2y2            0.683000       1.332189
                          9       1    1gx2yz            0.683000       2.307419
                          9       1    1gx2z2            0.683000       1.332189
                          9       1    1gxy3             0.683000       1.031909
                          9       1    1gxy2z            0.683000       2.307419
                          9       1    1gxyz2            0.683000       2.307419
                          9       1    1gxz3             0.683000       1.031909
                          9       1    1gy4              0.683000       0.390025
                          9       1    1gy3z             0.683000       1.031909
                          9       1    1gy2z2            0.683000       1.332189
                          9       1    1gyz3             0.683000       1.031909
                          9       1    1gz4              0.683000       0.390025

                         10       1    1gx4              0.297000       0.039493
                         10       1    1gx3y             0.297000       0.104488
                         10       1    1gx3z             0.297000       0.104488
                         10       1    1gx2y2            0.297000       0.134893
                         10       1    1gx2yz            0.297000       0.233641
                         10       1    1gx2z2            0.297000       0.134893
                         10       1    1gxy3             0.297000       0.104488
                         10       1    1gxy2z            0.297000       0.233641
                         10       1    1gxyz2            0.297000       0.233641
                         10       1    1gxz3             0.297000       0.104488
                         10       1    1gy4              0.297000       0.039493
                         10       1    1gy3z             0.297000       0.104488
                         10       1    1gy2z2            0.297000       0.134893
                         10       1    1gyz3             0.297000       0.104488
                         10       1    1gz4              0.297000       0.039493

       Atomic covalent radius [Angstrom]:                                  1.020

       Atomic van der Waals radius [Angstrom]:                             1.800

     The atoms of this atomic kind are PAW atoms (GAPW):
       Hard Gaussian function radius:                                      1.512
       Rho0 radius:                                                        1.512
       Maximum GTO radius used for PAW projector construction:            24.566

     GAPW Soft Basis Set                                        aug-cc-pVQZ_soft

       Number of orbital shell sets:                                          10
       Number of orbital shells:                                              22
       Number of primitive Cartesian functions:                               20
       Number of Cartesian basis functions:                                  109
       Number of spherical basis functions:                                   84
       Norm type:                                                              2

       Normalised Cartesian orbitals:

                        Set   Shell   Orbital            Exponent    Coefficient

                          1       1    1s                1.909000       0.002524
                                                         0.627000      -0.000420
                                                         0.287300       0.000125
                                                         0.117200      -0.000018

                          1       2    2s                1.909000       0.499763
                                                         0.627000       0.019555
                                                         0.287300      -0.002042
                                                         0.117200       0.000275

                          1       3    3s                1.909000       0.000000
                                                         0.627000       0.502182
                                                         0.287300       0.000000
                                                         0.117200       0.000000

                          1       4    4s                1.909000       0.000000
                                                         0.627000       0.000000
                                                         0.287300       0.279680
                                                         0.117200       0.000000

                          1       5    5s                1.909000      -0.385618
                                                         0.627000       0.132474
                                                         0.287300       0.186505
                                                         0.117200       0.041179

                          1       6    6s                1.909000       0.000000
                                                         0.627000       0.000000
                                                         0.287300       0.000000
                                                         0.117200       0.142760

                          2       1    1s                0.042800       0.067065

                          3       1    1px               3.541000       2.621971
                                                         1.591000       0.435360
                                                         0.620500       0.011900
                                                         0.242000       0.000016
                                                         0.090140       0.000029
                          3       1    1py               3.541000       2.621971
                                                         1.591000       0.435360
                                                         0.620500       0.011900
                                                         0.242000       0.000016
                                                         0.090140       0.000029
                          3       1    1pz               3.541000       2.621971
                                                         1.591000       0.435360
                                                         0.620500       0.011900
                                                         0.242000       0.000016
                                                         0.090140       0.000029

                          3       2    2px               3.541000       0.000000
                                                         1.591000       0.000000
                                                         0.620500       0.784996
                                                         0.242000       0.000000
                                                         0.090140       0.000000
                          3       2    2py               3.541000       0.000000
                                                         1.591000       0.000000
                                                         0.620500       0.784996
                                                         0.242000       0.000000
                                                         0.090140       0.000000
                          3       2    2pz               3.541000       0.000000
                                                         1.591000       0.000000
                                                         0.620500       0.784996
                                                         0.242000       0.000000
                                                         0.090140       0.000000

                          3       3    3px               3.541000      -0.818282
                                                         1.591000       0.023514
                                                         0.620500       0.281689
                                                         0.242000       0.127217
                                                         0.090140       0.017521
                          3       3    3py               3.541000      -0.818282
                                                         1.591000       0.023514
                                                         0.620500       0.281689
                                                         0.242000       0.127217
                                                         0.090140       0.017521
                          3       3    3pz               3.541000      -0.818282
                                                         1.591000       0.023514
                                                         0.620500       0.281689
                                                         0.242000       0.127217
                                                         0.090140       0.017521

                          3       4    4px               3.541000       0.000000
                                                         1.591000       0.000000
                                                         0.620500       0.000000
                                                         0.242000       0.241941
                                                         0.090140       0.000000
                          3       4    4py               3.541000       0.000000
                                                         1.591000       0.000000
                                                         0.620500       0.000000
                                                         0.242000       0.241941
                                                         0.090140       0.000000
                          3       4    4pz               3.541000       0.000000
                                                         1.591000       0.000000
                                                         0.620500       0.000000
                                                         0.242000       0.241941
                                                         0.090140       0.000000

                          3       5    5px               3.541000       0.000000
                                                         1.591000       0.000000
                                                         0.620500       0.000000
                                                         0.242000       0.000000
                                                         0.090140       0.070402
                          3       5    5py               3.541000       0.000000
                                                         1.591000       0.000000
                                                         0.620500       0.000000
                                                         0.242000       0.000000
                                                         0.090140       0.070402
                          3       5    5pz               3.541000       0.000000
                                                         1.591000       0.000000
                                                         0.620500       0.000000
                                                         0.242000       0.000000
                                                         0.090140       0.070402

                          4       1    1px               0.031700       0.019066
                          4       1    1py               0.031700       0.019066
                          4       1    1pz               0.031700       0.019066

                          5       1    1dx2              1.250000       2.432215
                                                         0.504000       0.000000
                                                         0.203000       0.000000
                          5       1    1dxy              1.250000       4.212720
                                                         0.504000       0.000000
                                                         0.203000       0.000000
                          5       1    1dxz              1.250000       4.212720
                                                         0.504000       0.000000
                                                         0.203000       0.000000
                          5       1    1dy2              1.250000       2.432215
                                                         0.504000       0.000000
                                                         0.203000       0.000000
                          5       1    1dyz              1.250000       4.212720
                                                         0.504000       0.000000
                                                         0.203000       0.000000
                          5       1    1dz2              1.250000       2.432215
                                                         0.504000       0.000000
                                                         0.203000       0.000000

                          5       2    2dx2              1.250000       0.000000
                                                         0.504000       0.496207
                                                         0.203000       0.000000
                          5       2    2dxy              1.250000       0.000000
                                                         0.504000       0.859456
                                                         0.203000       0.000000
                          5       2    2dxz              1.250000       0.000000
                                                         0.504000       0.859456
                                                         0.203000       0.000000
                          5       2    2dy2              1.250000       0.000000
                                                         0.504000       0.496207
                                                         0.203000       0.000000
                          5       2    2dyz              1.250000       0.000000
                                                         0.504000       0.859456
                                                         0.203000       0.000000
                          5       2    2dz2              1.250000       0.000000
                                                         0.504000       0.496207
                                                         0.203000       0.000000

                          5       3    3dx2              1.250000       0.000000
                                                         0.504000       0.000000
                                                         0.203000       0.101048
                          5       3    3dxy              1.250000       0.000000
                                                         0.504000       0.000000
                                                         0.203000       0.175020
                          5       3    3dxz              1.250000       0.000000
                                                         0.504000       0.000000
                                                         0.203000       0.175020
                          5       3    3dy2              1.250000       0.000000
                                                         0.504000       0.000000
                                                         0.203000       0.101048
                          5       3    3dyz              1.250000       0.000000
                                                         0.504000       0.000000
                                                         0.203000       0.175020
                          5       3    3dz2              1.250000       0.000000
                                                         0.504000       0.000000
                                                         0.203000       0.101048

                          6       1    1dx2              0.074800       0.017609
                          6       1    1dxy              0.074800       0.030500
                          6       1    1dxz              0.074800       0.030500
                          6       1    1dy2              0.074800       0.017609
                          6       1    1dyz              0.074800       0.030500
                          6       1    1dz2              0.074800       0.017609

                          7       1    1fx3              0.869000       1.073369
                                                         0.335000       0.000000
                          7       1    1fx2y             0.869000       2.400125
                                                         0.335000       0.000000
                          7       1    1fx2z             0.869000       2.400125
                                                         0.335000       0.000000
                          7       1    1fxy2             0.869000       2.400125
                                                         0.335000       0.000000
                          7       1    1fxyz             0.869000       4.157139
                                                         0.335000       0.000000
                          7       1    1fxz2             0.869000       2.400125
                                                         0.335000       0.000000
                          7       1    1fy3              0.869000       1.073369
                                                         0.335000       0.000000
                          7       1    1fy2z             0.869000       2.400125
                                                         0.335000       0.000000
                          7       1    1fyz2             0.869000       2.400125
                                                         0.335000       0.000000
                          7       1    1fz3              0.869000       1.073369
                                                         0.335000       0.000000

                          7       2    2fx3              0.869000       0.000000
                                                         0.335000       0.125691
                          7       2    2fx2y             0.869000       0.000000
                                                         0.335000       0.281054
                          7       2    2fx2z             0.869000       0.000000
                                                         0.335000       0.281054
                          7       2    2fxy2             0.869000       0.000000
                                                         0.335000       0.281054
                          7       2    2fxyz             0.869000       0.000000
                                                         0.335000       0.486800
                          7       2    2fxz2             0.869000       0.000000
                                                         0.335000       0.281054
                          7       2    2fy3              0.869000       0.000000
                                                         0.335000       0.125691
                          7       2    2fy2z             0.869000       0.000000
                                                         0.335000       0.281054
                          7       2    2fyz2             0.869000       0.000000
                                                         0.335000       0.281054
                          7       2    2fz3              0.869000       0.000000
                                                         0.335000       0.125691

                          8       1    1fx3              0.140000       0.017650
                          8       1    1fx2y             0.140000       0.039466
                          8       1    1fx2z             0.140000       0.039466
                          8       1    1fxy2             0.140000       0.039466
                          8       1    1fxyz             0.140000       0.068358
                          8       1    1fxz2             0.140000       0.039466
                          8       1    1fy3              0.140000       0.017650
                          8       1    1fy2z             0.140000       0.039466
                          8       1    1fyz2             0.140000       0.039466
                          8       1    1fz3              0.140000       0.017650

                          9       1    1gx4              0.683000       0.390025
                          9       1    1gx3y             0.683000       1.031909
                          9       1    1gx3z             0.683000       1.031909
                          9       1    1gx2y2            0.683000       1.332189
                          9       1    1gx2yz            0.683000       2.307419
                          9       1    1gx2z2            0.683000       1.332189
                          9       1    1gxy3             0.683000       1.031909
                          9       1    1gxy2z            0.683000       2.307419
                          9       1    1gxyz2            0.683000       2.307419
                          9       1    1gxz3             0.683000       1.031909
                          9       1    1gy4              0.683000       0.390025
                          9       1    1gy3z             0.683000       1.031909
                          9       1    1gy2z2            0.683000       1.332189
                          9       1    1gyz3             0.683000       1.031909
                          9       1    1gz4              0.683000       0.390025

                         10       1    1gx4              0.297000       0.039493
                         10       1    1gx3y             0.297000       0.104488
                         10       1    1gx3z             0.297000       0.104488
                         10       1    1gx2y2            0.297000       0.134893
                         10       1    1gx2yz            0.297000       0.233641
                         10       1    1gx2z2            0.297000       0.134893
                         10       1    1gxy3             0.297000       0.104488
                         10       1    1gxy2z            0.297000       0.233641
                         10       1    1gxyz2            0.297000       0.233641
                         10       1    1gxz3             0.297000       0.104488
                         10       1    1gy4              0.297000       0.039493
                         10       1    1gy3z             0.297000       0.104488
                         10       1    1gy2z2            0.297000       0.134893
                         10       1    1gyz3             0.297000       0.104488
                         10       1    1gz4              0.297000       0.039493

     AE Potential information for                                            ALL

       Description:                                       All-electron potential
                                          Krack, Parrinello, PCCP 2, 2105 (2000)

       Gaussian exponent of the core charge distribution:               2.834467
       Electronic configuration (s p d ...):                           6  10   0

  2. Atomic kind: C                                     Number of atoms:       1

     Orbital Basis Set                                               aug-cc-pVQZ

       Number of orbital shell sets:                                          10
       Number of orbital shells:                                              20
       Number of primitive Cartesian functions:                               29
       Number of Cartesian basis functions:                                  105
       Number of spherical basis functions:                                   80
       Norm type:                                                              2

       Normalised Cartesian orbitals:

                        Set   Shell   Orbital            Exponent    Coefficient

                          1       1    1s            33980.000000       0.162319
                                                      5089.000000       0.302313
                                                      1157.000000       0.522143
                                                       326.600000       0.841034
                                                       106.100000       1.247069
                                                        38.110000       1.607436
                                                        14.750000       1.639463
                                                         6.035000       1.095889
                                                         2.530000       0.310322
                                                         0.735500       0.008997
                                                         0.290500      -0.000870
                                                         0.111100       0.000134

                          1       2    2s            33980.000000       0.000000
                                                      5089.000000       0.000000
                                                      1157.000000       0.000000
                                                       326.600000       0.000000
                                                       106.100000       0.000000
                                                        38.110000       0.000000
                                                        14.750000       0.000000
                                                         6.035000       0.000000
                                                         2.530000       0.000000
                                                         0.735500       0.566040
                                                         0.290500       0.000000
                                                         0.111100       0.000000

                          1       3    3s            33980.000000       0.000000
                                                      5089.000000       0.000000
                                                      1157.000000       0.000000
                                                       326.600000       0.000000
                                                       106.100000       0.000000
                                                        38.110000       0.000000
                                                        14.750000       0.000000
                                                         6.035000       0.000000
                                                         2.530000       0.000000
                                                         0.735500       0.000000
                                                         0.290500       0.282013
                                                         0.111100       0.000000

                          1       4    4s            33980.000000      -0.033891
                                                      5089.000000      -0.064843
                                                      1157.000000      -0.110989
                                                       326.600000      -0.182005
                                                       106.100000      -0.271236
                                                        38.110000      -0.373428
                                                        14.750000      -0.413970
                                                         6.035000      -0.388287
                                                         2.530000      -0.168734
                                                         0.735500       0.154985
                                                         0.290500       0.165404
                                                         0.111100       0.039147

                          1       5    5s            33980.000000       0.000000
                                                      5089.000000       0.000000
                                                      1157.000000       0.000000
                                                       326.600000       0.000000
                                                       106.100000       0.000000
                                                        38.110000       0.000000
                                                        14.750000       0.000000
                                                         6.035000       0.000000
                                                         2.530000       0.000000
                                                         0.735500       0.000000
                                                         0.290500       0.000000
                                                         0.111100       0.137150

                          2       1    1s                0.041450       0.065472

                          3       1    1px              34.510000       0.000000
                                                         7.915000       0.000000
                                                         2.368000       0.000000
                                                         0.813200       1.100745
                                                         0.289000       0.000000
                                                         0.100700       0.000000
                          3       1    1py              34.510000       0.000000
                                                         7.915000       0.000000
                                                         2.368000       0.000000
                                                         0.813200       1.100745
                                                         0.289000       0.000000
                                                         0.100700       0.000000
                          3       1    1pz              34.510000       0.000000
                                                         7.915000       0.000000
                                                         2.368000       0.000000
                                                         0.813200       1.100745
                                                         0.289000       0.000000
                                                         0.100700       0.000000

                          3       2    2px              34.510000       0.641198
                                                         7.915000       0.683747
                                                         2.368000       0.596637
                                                         0.813200       0.376620
                                                         0.289000       0.140105
                                                         0.100700       0.020217
                          3       2    2py              34.510000       0.641198
                                                         7.915000       0.683747
                                                         2.368000       0.596637
                                                         0.813200       0.376620
                                                         0.289000       0.140105
                                                         0.100700       0.020217
                          3       2    2pz              34.510000       0.641198
                                                         7.915000       0.683747
                                                         2.368000       0.596637
                                                         0.813200       0.376620
                                                         0.289000       0.140105
                                                         0.100700       0.020217

                          3       3    3px              34.510000       0.000000
                                                         7.915000       0.000000
                                                         2.368000       0.000000
                                                         0.813200       0.000000
                                                         0.289000       0.302039
                                                         0.100700       0.000000
                          3       3    3py              34.510000       0.000000
                                                         7.915000       0.000000
                                                         2.368000       0.000000
                                                         0.813200       0.000000
                                                         0.289000       0.302039
                                                         0.100700       0.000000
                          3       3    3pz              34.510000       0.000000
[...]
 flops total                         2.441236E+09       1.6%     98.4%      0.0%
 flops max/rank                      1.148495E+09       2.3%     97.7%      0.0%
 matmuls inhomo. stacks                       332     100.0%      0.0%      0.0%
 matmuls total                              31239       1.1%     98.9%      0.0%
 number of processed stacks                 29639       1.1%     98.9%      0.0%
 average stack size                                     1.0       1.1       0.0
 marketing flops                     2.692299E+09
 -------------------------------------------------------------------------------
 # multiplications                           1960
 max memory usage/rank               1.932911E+09
 # max total images/rank                        2
 # max 3D layers                                1
 # MPI messages exchanged                 7275520
 MPI messages size (bytes):
  total size                         8.725793E+09
  min size                           0.000000E+00
  max size                         110.208000E+03
  average size                       1.199336E+03
 MPI breakdown and total messages size (bytes):
             size <=      128             6991771                        0
       128 < size <=     8192               88164                477620096
      8192 < size <=    32768              133695               3059532096
     32768 < size <=   131072               61890               5188640640
    131072 < size <=  4194304                   0                        0
   4194304 < size <= 16777216                   0                        0
  16777216 < size                               0                        0
 -------------------------------------------------------------------------------

 *** WARNING in dbcsr_mm.F:291 :: Using a non-square number of MPI ranks ***
 *** might lead to poor performance. Used ranks: 128 Suggested: 121 256  ***

 -------------------------------------------------------------------------------
 -                                                                             -
 -                      DBCSR MESSAGE PASSING PERFORMANCE                      -
 -                                                                             -
 -------------------------------------------------------------------------------
 ROUTINE             CALLS      AVE VOLUME [Bytes]
 MP_Bcast               44                     12.
 MP_Allreduce         8632                      8.
 MP_Alltoall         29112                  41030.
 MP_ISend           124224                   3638.
 MP_IRecv           121496                   2090.
 -------------------------------------------------------------------------------

 -------------------------------------------------------------------------------
 -                                                                             -
 -                                DBM STATISTICS                               -
 -                                                                             -
 -------------------------------------------------------------------------------
    M  x    N  x    K                                          COUNT     PERCENT
 -------------------------------------------------------------------------------

 -------------------------------------------------------------------------------
 -                                                                             -
 -                                GRID STATISTICS                              -
 -                                                                             -
 -------------------------------------------------------------------------------
 LP    KERNEL             BACKEND                              COUNT     PERCENT
 3     collocate ortho    CPU                                 101032       9.42%
 2     collocate ortho    CPU                                  99821       9.31%
 3     integrate ortho    CPU                                  99280       9.26%
 2     integrate ortho    CPU                                  98090       9.15%
 1     collocate ortho    CPU                                  82175       7.67%
 1     integrate ortho    CPU                                  80750       7.53%
 4     collocate ortho    CPU                                  79926       7.46%
 4     integrate ortho    CPU                                  78540       7.33%
 2     collocate general  CPU                                  52224       4.87%
 2     integrate general  CPU                                  51200       4.78%
 5     collocate ortho    CPU                                  47402       4.42%
 5     integrate ortho    CPU                                  46580       4.34%
 0     collocate ortho    CPU                                  43250       4.03%
 0     integrate ortho    CPU                                  42500       3.96%
 6     collocate ortho    CPU                                  23355       2.18%
 6     integrate ortho    CPU                                  22950       2.14%
 7     collocate ortho    CPU                                   8996       0.84%
 7     integrate ortho    CPU                                   8840       0.82%
 8     collocate ortho    CPU                                   2076       0.19%
 8     integrate ortho    CPU                                   2040       0.19%
 0     collocate general  CPU                                    512       0.05%
 0     integrate general  CPU                                    512       0.05%
 -------------------------------------------------------------------------------

 MEMORY| Estimated peak process memory [MiB]                                1871

 -------------------------------------------------------------------------------
 ----                             MULTIGRID INFO                            ----
 -------------------------------------------------------------------------------
 count for grid        1:       47405596          cutoff [a.u.]          600.00
 count for grid        2:        7471749          cutoff [a.u.]          200.00
 count for grid        3:        5750187          cutoff [a.u.]           66.67
 count for grid        4:        2762796          cutoff [a.u.]           22.22
 count for grid        5:         318861          cutoff [a.u.]            7.41
 total gridlevel count  :       63709189

 -------------------------------------------------------------------------------
 -                                                                             -
 -                         MESSAGE PASSING PERFORMANCE                         -
 -                                                                             -
 -------------------------------------------------------------------------------

 ROUTINE             CALLS      AVE VOLUME [Bytes]
 MP_Group                6
 MP_Bcast             2063                 312886.
 MP_Allreduce         9110                  38356.
 MP_Sync              1639
 MP_Alltoall          4550               18832341.
 MP_SendRecv         65913                 127152.
 MP_ISendRecv       143764                 117649.
 MP_Wait            184771
 MP_comm_split          81
 MP_ISend            34506                 841128.
 MP_IRecv            37104                 782183.
 -------------------------------------------------------------------------------


 -------------------------------------------------------------------------------
 -                                                                             -
 -                           R E F E R E N C E S                               -
 -                                                                             -
 -------------------------------------------------------------------------------
 
 CP2K version 2024.1 (Development Version), the CP2K developers group (2024).
 CP2K is freely available from https://www.cp2k.org/ .

 Kuehne,Thomas D.; Iannuzzi,Marcella; Del Ben,Mauro;
 Rybkin,Vladimir V.; Seewald,Patrick; Stein,Frederick; Laino,Teodoro;
 Khaliullin,Rustam Z.; Schuett,Ole; Schiffmann,Florian; Golze,Dorothea;
 Wilhelm,Jan; Chulkov,Sergey; Bani-Hashemian,Mohammad Hossein;
 Weber,Valery; Borstnik,Urban; Taillefumier,Mathieu;
 Jakobovits,Alice Shoshana; Lazzaro,Alfio; Pabst,Hans; Mueller,Tiziano;
 Schade,Robert; Guidon,Manuel; Andermatt,Samuel; Holmberg,Nico;
 Schenter,Gregory K.; Hehn,Anna; Bussy,Augustin; Belleflamme,Fabian;
 Tabacchi,Gloria; Gloess,Andreas; Lass,Michael; Bethune,Iain;
 Mundy,Christopher J.; Plessl,Christian; Watkins,Matt;
 VandeVondele,Joost; Krack,Matthias; Hutter,Juerg. 
 The Journal of Chemical Physics, 152 (19), (2020). 
 CP2K: An electronic structure and molecular dynamics software package -
 Quickstep: Efficient and accurate electronic structure calculations.
 https://doi.org/10.1063/5.0007045

 Schuett, Ole; Messmer, Peter; Hutter, Juerg; VandeVondele, Joost. 
 Electronic Structure Calculations on Graphics Processing Units, John
 Wiley & Sons, Ltd, 173-190 (2016). 
 GPU-Accelerated Sparse Matrix-Matrix Multiplication for
 Linear Scaling Density Functional Theory.
 https://doi.org/10.1002/9781118670712.ch8

 Heinecke, A; Henry, G; Hutchinson, M; Pabst, H. 
 Proceedings of Intl. Supercomputing Conference, 981-991 (2016). 
 LIBXSMM: Accelerating Small Matrix Multiplications
 by Runtime Code Generation.
 https://doi.org/10.1109/SC.2016.83

 Borstnik, U; VandeVondele, J; Weber, V; Hutter, J. 
 PARALLEL COMPUTING, 40 (5-6), 47-58 (2014). 
 Sparse matrix multiplication: The distributed block-compressed sparse
 row library.
 https://doi.org/10.1016/j.parco.2014.03.012

 Hutter, J; Iannuzzi, M; Schiffmann, F; VandeVondele, J. 
 WIREs Comput Mol Sci., 4 (1), 15-25 (2014). 
 CP2K: atomistic simulations of condensed matter systems.
 https://doi.org/10.1002/wcms.1159

 Guidon, M; Hutter, J; VandeVondele, J. 
 JOURNAL OF CHEMICAL THEORY AND COMPUTATION, 5 (11), 3010-3021 (2009). 
 Robust Periodic Hartree-Fock Exchange for Large-Scale Simulations Using
 Gaussian Basis Sets.
 https://doi.org/10.1021/ct900494g

 Guidon, M; Schiffmann, F; Hutter, J; VandeVondele, J. 
 JOURNAL OF CHEMICAL PHYSICS, 128 (21), 214104 (2008). 
 Ab initio molecular dynamics using hybrid density functionals.
 https://doi.org/10.1063/1.2931945

 Frigo, M; Johnson, SG. 
 PROCEEDINGS OF THE IEEE, 93 (2), 216-231 (2005). 
 The design and implementation of FFTW3.
 https://doi.org/10.1109/JPROC.2004.840301

 Iannuzzi, M; Chassaing, T; Wallman, T; Hutter, J. 
 CHIMIA, 59 (7-8), 499-503 (2005). 
 Ground and excited state density functional calculations with the
 Gaussian and augmented-plane-wave method.
 https://doi.org/10.2533/000942905777676164

 VandeVondele, J; Hutter, J. 
 JOURNAL OF CHEMICAL PHYSICS, 118 (10), 4365-4369 (2003). 
 An efficient orbital transformation method for electronic structure
 calculations.
 https://doi.org/10.1063/1.1543154

 Martin,Richard L.. 
 The Journal of Chemical Physics, 118 (11), 4775-4777 (2003). 
 Natural transition orbitals.
 https://doi.org/10.1063/1.1558471

 Lippert, G; Hutter, J; Parrinello, M. 
 THEORETICAL CHEMISTRY ACCOUNTS, 103 (2), 124-140 (1999). 
 The Gaussian and augmented-plane-wave density functional method for ab
 initio molecular dynamics simulations.
 https://doi.org/10.1007/s002140050523

 Krack, M; Parrinello, M. 
 PHYSICAL CHEMISTRY CHEMICAL PHYSICS, 2 (10), 2105-2112 (2000). 
 All-electron ab-initio molecular dynamics.
 https://doi.org/10.1039/b001167n

 Martyna, GJ; Tuckerman, ME. 
 JOURNAL OF CHEMICAL PHYSICS, 110 (6), 2810-2821 (1999). 
 A reciprocal space based method for treating long range interactions in
 ab initio and force-field-based calculations in clusters.
 https://doi.org/10.1063/1.477923

 Perdew, JP; Burke, K; Ernzerhof, M. 
 PHYSICAL REVIEW LETTERS, 77 (18), 3865-3868 (1996). 
 Generalized gradient approximation made simple.
 https://doi.org/10.1103/PhysRevLett.77.3865


 -------------------------------------------------------------------------------
 -                                                                             -
 -                                T I M I N G                                  -
 -                                                                             -
 -------------------------------------------------------------------------------
 SUBROUTINE                       CALLS  ASD         SELF TIME        TOTAL TIME
                                MAXIMUM       AVERAGE  MAXIMUM  AVERAGE  MAXIMUM
 CP2K                                 1  1.0     5.09     5.20 10766.06 10766.10
 qs_energies                          1  2.0     0.01     0.05 10699.31 10699.36
 qs_energies_properties               1  3.0     0.00     0.01  8637.97  8638.01
 tddfpt                               1  4.0     0.01     0.06  8637.97  8638.01
 tddfpt_soc_energies                  1  5.0     0.00     0.00  8585.43  8585.47
 tddfpt_energies                      2  6.0     0.00     0.01  8504.47  8504.54
 tddfpt_davidson_solver               4  7.0     0.03     0.10  7259.57  7259.65
 tddfpt_compute_Aop_evects           14  8.0     0.01     0.06  6505.77  6506.01
 fhxc_kernel                         14  9.0     0.03     0.09  3883.35  3883.54
 mp_waitall_1                    367187 14.3  2623.54  2707.85  2623.54  2707.85
 tddfpt_apply_hfx                    14  9.0     0.00     0.02  2332.38  2332.54
 integrate_four_center              310 10.8     0.22     0.44  2049.71  2052.89
 scf_env_do_scf                       1  3.0     0.00     0.02  2035.65  2035.69
 cp_dbcsr_sm_fm_multiply            886  9.5     0.02     0.03  1735.95  1750.59
 qs_rho_update_rho_low              173  9.1     0.01     0.06  1711.17  1712.31
 tddft_hfx_matrix                   280 10.0     0.01     0.05  1618.53  1621.87
 scf_env_do_scf_inner_loop           30  4.0     0.01     0.08  1605.41  1605.54
 calculate_rho_elec                 173 10.1     1.11     2.40  1536.05  1538.89
 density_rs2pw                      173 11.1     0.02     0.05  1497.45  1503.06
 integrate_v_rspace                 170  9.8     0.01     0.04  1436.89  1441.44
 dbcsr_complete_redistribute       2874 11.5     0.12     0.29  1380.87  1412.22
 potential_pw2rs                    170 10.8     0.06     0.14  1383.53  1393.11
 transfer_rs2pw                     968 12.0     0.02     0.08  1274.88  1285.38
 transfer_pw2rs                     951 11.7     0.01     0.04  1265.26  1274.46
 tddfpt_print_nto_analysis            2  7.0     0.02     0.06  1146.87  1147.31
 mp_sendrecv_dv                   65913 14.1  1095.69  1107.61  1095.69  1107.61
 cp_fm_syevd                         81  9.2     0.01     0.04  1098.18  1099.46
 dbcsr_multiply_generic            1960 10.9     0.09     0.16  1045.00  1077.61
 copy_dbcsr_to_fm                   962 10.4     0.01     0.02  1008.69  1027.03
 cp_fm_redistribute_end              81 10.2   520.36   988.81   528.68   992.82
 cp_fm_geeig                         20  8.0     0.01     0.04   940.16   940.46
 pw_transfer                       3805 12.1     0.55     0.80   912.65   938.75
 fft_wrap_pw1pw2                   3503 13.2     0.05     0.12   910.71   936.70
 cp_fm_syevd_base                    81 10.2   458.22   924.31   458.22   924.31
 qs_ks_update_qs_env                 32  5.0     0.00     0.01   910.29   911.91
 rebuild_ks_matrix                   30  6.0     0.00     0.02   906.63   908.22
 qs_ks_build_kohn_sham_matrix        30  7.0     0.02     0.08   906.63   908.22
 fft3d_ps                          3503 15.2   105.63   120.15   837.85   865.60
 integrate_four_center_getP         310 11.8     0.10     0.48   847.36   848.75
 integrate_four_center_dist_KS      310 11.8     0.12     0.45   808.21   809.12
 fft_wrap_pw1pw2_600               2130 14.3    10.76    11.74   679.90   704.85
 mp_sync                           1639 12.5   597.04   702.31   597.04   702.31
 copy_fm_to_dbcsr                  1908 10.6     0.01     0.02   647.34   679.06
 qs_scf_new_mos                      30  5.0     0.00     0.01   669.23   670.19
 qs_scf_loop_do_ot                   30  6.0     0.00     0.00   669.23   670.19
 mp_alltoall_d11v                 11965 12.7   622.70   668.42   622.70   668.42
 ot_scf_mini                         30  7.0     0.00     0.01   650.34   651.15
 mp_alltoall_z22v                  3503 17.2   604.26   643.31   604.26   643.31
 tddfpt_orthonormalize_psi1_psi      16  7.9     0.01     0.05   501.93   506.32
 mp_alltoall_i11v                  9696 12.5   501.06   502.76   501.06   502.76
 transfer_pw2rs_70                  170 12.8     8.50    17.86   465.51   497.58
 mp_sum_l                          8264 11.3   474.37   494.98   474.37   494.98
 transfer_rs2pw_70                  173 13.1     5.47     9.38   449.34   481.07
 tddfpt_apply_xc_analytic           140 10.0     2.14     2.66   475.86   478.45
 xc_pw_derive                      1239 11.7     0.04     0.10   415.37   437.34
 hfx_ks_matrix                       30  8.0     0.00     0.04   431.20   431.43
 init_scf_loop                        2  4.0     0.01     0.04   429.11   429.15
 transfer_rs2pw_30                  173 13.1     0.68     1.73   372.68   408.33
 cp_dbcsr_sm_fm_multiply_core       886 10.5     0.00     0.04   366.40   396.20
 transfer_pw2rs_30                  170 12.8     0.54     0.97   356.25   381.58
 yz_to_x                           1305 16.6    12.07    13.73   327.35   362.25
 ot_mini                             30  8.0     0.01     0.05   358.48   359.45
 mp_sum_dv                         5019 10.5   343.21   354.90   343.21   354.90
 integrate_four_center_main         310 11.8     0.05     0.12    30.14   312.07
 integrate_four_center_bin        39680 12.8    30.09   312.02    30.09   312.02
 multiply_cannon                   1960 11.9     0.16     0.23   281.55   309.37
 mp_cart_sub                       1932 12.4   304.03   305.06   304.03   305.06
 qs_ot_get_derivative                30  9.0     0.00     0.04   301.82   302.65
 mp_sum_dm                         1901 11.0   296.73   298.79   296.73   298.79
 dbcsr_desymmetrize_deep            963 11.4     0.02     0.04   276.81   295.74
 tddfpt_apply_energy_diff            14  9.0     0.00     0.00   290.03   290.11
 transfer_rs2pw_10                  173 13.1     0.18     0.38   279.99   288.23
 x_to_yz                           1512 15.9    18.78    29.89   272.27   279.95
 xc_calc_2nd_deriv_analytical       700 11.1    66.92   100.49   276.28   278.10
 cp_dbcsr_plus_fm_fm_t_native       141 10.0     0.01     0.06   275.21   277.17
 mp_waitany                       34506 13.8   225.54   263.71   225.54   263.71
 xc_pw_divergence                   170 11.6     0.01     0.06   241.09   261.97
 sum_up_and_integrate                30  8.0     0.00     0.03   258.82   259.62
 transfer_pw2rs_10                  170 12.8     0.14     0.20   249.63   257.82
 qs_ot_get_p                         32  7.9     0.00     0.02   241.32   241.99
 mp_alltoall_i22                   3874 12.5   212.62   239.50   212.62   239.50
 make_m2s                          3920 11.9     0.06     0.36   201.31   223.97
 make_images                       3920 12.9     0.10     0.16   201.16   223.79
 cp_fm_trace_a1b1t1_aa             3880  9.0     0.01     0.02   219.60   223.07
 -------------------------------------------------------------------------------

 The number of warnings for this run is : 1
 
 -------------------------------------------------------------------------------
  **** **** ******  **  PROGRAM ENDED AT                 2024-02-02 12:21:59.025
 ***** ** ***  *** **   PROGRAM RAN ON                               nesh-clk526
 **    ****   ******    PROGRAM RAN BY                                  suphc355
 ***** **    ** ** **   PROGRAM PROCESS ID                               3657735
  **** **  *******  **  PROGRAM STOPPED IN /gxfs_work/cau/suphc355/homologes/CH2
                                           X/AE/S
