
 *******************************************************************************
 *   ___                                                                       *
 *  /   \                                                                      *
 * [ABORT]                                                                     *
 *  \___/     A string type object was expected, found end of line, File: '',  *
 *    |                            Line: 5348, Column: 1                       *
 *  O/|                                                                        *
 * /| |                                                                        *
 * / \                                          input/cp_parser_methods.F:1223 *
 *******************************************************************************


 ===== Routine Calling Stack ===== 

            6 section_vals_parse
            5 section_vals_parse
            4 section_vals_parse
            3 section_vals_parse
            2 section_vals_parse
            1 read_input

 DBCSR| CPU Multiplication driver                                           XSMM (U)
 DBCSR| Multrec recursion limit                                              512 (U)
 DBCSR| Multiplication stack size                                           1000 (D)
 DBCSR| Maximum elements for images                                    UNLIMITED (U)
 DBCSR| Multiplicative factor virtual images                                   1 (U)
 DBCSR| Use multiplication densification                                       T (D)
 DBCSR| Multiplication size stacks                                             3 (U)
 DBCSR| Use memory pool for CPU allocation                                     F (U)
 DBCSR| Number of 3D layers                                               SINGLE (U)
 DBCSR| Use MPI memory allocation                                              F (U)
 DBCSR| Use RMA algorithm                                                      F (U)
 DBCSR| Use Communication thread                                               T (U)
 DBCSR| Communication thread load                                             87 (D)
 DBCSR| MPI: My process id                                                     0
 DBCSR| MPI: Number of processes                                             128
 DBCSR| OMP: Current number of threads                                         1
 DBCSR| OMP: Max number of threads                                             1
 DBCSR| Split modifier for TAS multiplication algorithm                  1.0E+00 (U)


  **** **** ******  **  PROGRAM STARTED AT               2024-02-07 15:51:55.400
 ***** ** ***  *** **   PROGRAM STARTED ON                           nesh-srp276
 **    ****   ******    PROGRAM STARTED BY                              suphc355
 ***** **    ** ** **   PROGRAM PROCESS ID                                645186
  **** **  *******  **  PROGRAM STARTED IN /gxfs_work/cau/suphc355/homologes/CH2
                                           X/AE/S

 CP2K| version string:                 CP2K version 2024.1 (Development Version)
 CP2K| source code revision number:                                  git:b6f9133
 CP2K| cp2kflags: omp libint fftw3 libxc libgrpp parallel mpi_f08 scalapack cosm
 CP2K|            a xsmm spglib mkl
 CP2K| is freely available from                            https://www.cp2k.org/
 CP2K| Program compiled at                          Fr 26. Jan 09:14:30 CET 2024
 CP2K| Program compiled on                                           nesh-login3
 CP2K| Program compiled for                                                local
 CP2K| Data directory path            /gxfs_home/cau/suphc355/software/cp2k/data
 CP2K| Input file name                                                AE_vel.inp
 
 GLOBAL| Force Environment number                                              1
 GLOBAL| Basis set file name                                 ../../../basis_zora
 GLOBAL| Potential file name                                           POTENTIAL
 GLOBAL| MM Potential file name                                     MM_POTENTIAL
 GLOBAL| Coordinate file name                                            opt.xyz
 GLOBAL| Method name                                                        CP2K
 GLOBAL| Project name                                                    CH2S_AE
 GLOBAL| Run type                                                         ENERGY
 GLOBAL| FFT library                                                       FFTW3
 GLOBAL| Diagonalization library                                       ScaLAPACK
 GLOBAL| DGEMM library                                                      BLAS
 GLOBAL| Orthonormality check for eigenvectors                          DISABLED
 GLOBAL| Matrix multiplication library                                     COSMA
 GLOBAL| All-to-all communication in single precision                          F
 GLOBAL| FFTs using library dependent lengths                                  F
 GLOBAL| Grid backend                                                       AUTO
 GLOBAL| Global print level                                               MEDIUM
 GLOBAL| MPI I/O enabled                                                       T
 GLOBAL| Total number of message passing processes                           128
 GLOBAL| Number of threads for this process                                    1
 GLOBAL| This output is from process                                           0
 GLOBAL| Stack size for threads created by OpenMP (OMP_STACKSIZE)        default
 GLOBAL| CPU model name                              Intel(R) Xeon(R) Gold 6426Y
 GLOBAL| CPUID                                                              1003

 MEMORY| system memory details [Kb]
 MEMORY|                        rank 0           min           max       average
 MEMORY| MemTotal            263786136     263786136     263786136     263786136
 MEMORY| MemFree             242304908     242299872     242501572     242364873
 MEMORY| Buffers               1067204       1040444       1067204       1052535
 MEMORY| Cached                1122544       1041396       1134660       1105598
 MEMORY| Slab                   706588        650832        706588        678886
 MEMORY| SReclaimable           234624        210516        234624        224924
 MEMORY| MemLikelyFree       244729280     244720608     244793928     244747931


 *** Fundamental physical constants (SI units) ***

 *** Literature: B. J. Mohr and B. N. Taylor,
 ***             CODATA recommended values of the fundamental physical
 ***             constants: 2006, Web Version 5.1
 ***             http://physics.nist.gov/constants

 Speed of light in vacuum [m/s]                             2.99792458000000E+08
 Magnetic constant or permeability of vacuum [N/A**2]       1.25663706143592E-06
 Electric constant or permittivity of vacuum [F/m]          8.85418781762039E-12
 Planck constant (h) [J*s]                                  6.62606896000000E-34
 Planck constant (h-bar) [J*s]                              1.05457162825177E-34
 Elementary charge [C]                                      1.60217648700000E-19
 Electron mass [kg]                                         9.10938215000000E-31
 Electron g factor [ ]                                     -2.00231930436220E+00
 Proton mass [kg]                                           1.67262163700000E-27
 Fine-structure constant                                    7.29735253760000E-03
 Rydberg constant [1/m]                                     1.09737315685270E+07
 Avogadro constant [1/mol]                                  6.02214179000000E+23
 Boltzmann constant [J/K]                                   1.38065040000000E-23
 Atomic mass unit [kg]                                      1.66053878200000E-27
 Bohr radius [m]                                            5.29177208590000E-11

 *** Conversion factors ***

 [u] -> [a.u.]                                              1.82288848426455E+03
 [Angstrom] -> [Bohr] = [a.u.]                              1.88972613288564E+00
 [a.u.] = [Bohr] -> [Angstrom]                              5.29177208590000E-01
 [a.u.] -> [s]                                              2.41888432650478E-17
 [a.u.] -> [fs]                                             2.41888432650478E-02
 [a.u.] -> [J]                                              4.35974393937059E-18
 [a.u.] -> [N]                                              8.23872205491840E-08
 [a.u.] -> [K]                                              3.15774647902944E+05
 [a.u.] -> [kJ/mol]                                         2.62549961709828E+03
 [a.u.] -> [kcal/mol]                                       6.27509468713739E+02
 [a.u.] -> [Pa]                                             2.94210107994716E+13
 [a.u.] -> [bar]                                            2.94210107994716E+08
 [a.u.] -> [atm]                                            2.90362800883016E+08
 [a.u.] -> [eV]                                             2.72113838565563E+01
 [a.u.] -> [Hz]                                             6.57968392072181E+15
 [a.u.] -> [1/cm] (wave numbers)                            2.19474631370540E+05
 [a.u./Bohr**2] -> [1/cm]                                   5.14048714338585E+03
 

 CELL_TOP| Volume [angstrom^3]:                                      8000.000000
 CELL_TOP| Vector a [angstrom    20.000     0.000     0.000   |a| =    20.000000
 CELL_TOP| Vector b [angstrom     0.000    20.000     0.000   |b| =    20.000000
 CELL_TOP| Vector c [angstrom     0.000     0.000    20.000   |c| =    20.000000
 CELL_TOP| Angle (b,c), alpha [degree]:                                90.000000
 CELL_TOP| Angle (a,c), beta  [degree]:                                90.000000
 CELL_TOP| Angle (a,b), gamma [degree]:                                90.000000
 CELL_TOP| Numerically orthorhombic:                                         YES
 CELL_TOP| Periodicity                                                      NONE
 
 GENERATE|  Preliminary Number of Bonds generated:                             0
 GENERATE|  Achieved consistency in connectivity generation.

 CELL| Volume [angstrom^3]:                                          8000.000000
 CELL| Vector a [angstrom]:      20.000     0.000     0.000   |a| =    20.000000
 CELL| Vector b [angstrom]:       0.000    20.000     0.000   |b| =    20.000000
 CELL| Vector c [angstrom]:       0.000     0.000    20.000   |c| =    20.000000
 CELL| Angle (b,c), alpha [degree]:                                    90.000000
 CELL| Angle (a,c), beta  [degree]:                                    90.000000
 CELL| Angle (a,b), gamma [degree]:                                    90.000000
 CELL| Numerically orthorhombic:                                             YES
 CELL| Periodicity                                                          NONE

 CELL_REF| Volume [angstrom^3]:                                      8000.000000
 CELL_REF| Vector a [angstrom    20.000     0.000     0.000   |a| =    20.000000
 CELL_REF| Vector b [angstrom     0.000    20.000     0.000   |b| =    20.000000
 CELL_REF| Vector c [angstrom     0.000     0.000    20.000   |c| =    20.000000
 CELL_REF| Angle (b,c), alpha [degree]:                                90.000000
 CELL_REF| Angle (a,c), beta  [degree]:                                90.000000
 CELL_REF| Angle (a,b), gamma [degree]:                                90.000000
 CELL_REF| Numerically orthorhombic:                                         YES
 CELL_REF| Periodicity                                                      NONE

 *******************************************************************************
 *******************************************************************************
 **                                                                           **
 **     #####                         ##              ##                      **
 **    ##   ##            ##          ##              ##                      **
 **   ##     ##                       ##            ######                    **
 **   ##     ##  ##   ##  ##   #####  ##  ##   ####   ##    #####    #####    **
 **   ##     ##  ##   ##  ##  ##      ## ##   ##      ##   ##   ##  ##   ##   **
 **   ##  ## ##  ##   ##  ##  ##      ####     ###    ##   ######   ######    **
 **    ##  ###   ##   ##  ##  ##      ## ##      ##   ##   ##       ##        **
 **     #######   #####   ##   #####  ##  ##  ####    ##    #####   ##        **
 **           ##                                                    ##        **
 **                                                                           **
 **                                                ... make the atoms dance   **
 **                                                                           **
 **            Copyright (C) by CP2K developers group (2000-2024)             **
 **                      J. Chem. Phys. 152, 194103 (2020)                    **
 **                                                                           **
 *******************************************************************************

 DFT| Spin restricted Kohn-Sham (RKS) calculation                            RKS
 DFT| Multiplicity                                                             1
 DFT| Number of spin states                                                    1
 DFT| Charge                                                                   0
 DFT| Self-interaction correction (SIC)                                       NO
 DFT| Cutoffs: density                                              1.000000E-10
 DFT|          gradient                                             1.000000E-10
 DFT|          tau                                                  1.000000E-10
 DFT|          cutoff_smoothing_range                               0.000000E+00
 DFT| XC density smoothing                                                  NONE
 DFT| XC derivatives                                                          PW

 FUNCTIONAL| PBE:
 FUNCTIONAL| J.P.Perdew, K.Burke, M.Ernzerhof, Phys. Rev. Letter, vol. 77, n 18,
 FUNCTIONAL|  pp. 3865-3868, (1996)sx=0.750sc=1.000{spin unpolarized}           


 QS| Method:                                                                GAPW
 QS| Density plane wave grid type                        NON-SPHERICAL FULLSPACE
 QS| Number of grid levels:                                                    5
 QS| Density cutoff [a.u.]:                                                600.0
 QS| Multi grid cutoff [a.u.]: 1) grid level                               600.0
 QS|                           2) grid level                               200.0
 QS|                           3) grid level                                66.7
 QS|                           4) grid level                                22.2
 QS|                           5) grid level                                 7.4
 QS| Grid level progression factor:                                          3.0
 QS| Relative density cutoff [a.u.]:                                        40.0
 QS| Interaction thresholds: eps_pgf_orb:                                1.0E-30
 QS|                         eps_filter_matrix:                          0.0E+00
 QS|                         eps_core_charge:                            1.0E-17
 QS|                         eps_rho_gspace:                             1.0E-15
 QS|                         eps_rho_rspace:                             1.0E-15
 QS|                         eps_gvg_rspace:                             3.2E-08
 QS|                         eps_ppl:                                    1.0E-02
 QS|                         eps_ppnl:                                   3.2E-10
 QS| GAPW|      One center basis from orbital basis primitives
 QS| GAPW|                   eps_fit:                                    1.0E-04
 QS| GAPW|                   eps_iso:                                    1.0E-12
 QS| GAPW|                   eps_svd:                                    1.0E-08
 QS| GAPW|                   eps_cpc:                                    1.0E-15
 QS| GAPW|   atom-r-grid: quadrature:                                     GC_LOG
 QS| GAPW|      atom-s-grid:  max l :                                          6
 QS| GAPW|      max_l_rho0 :                                                   2


 ATOMIC KIND INFORMATION

  1. Atomic kind: S                                     Number of atoms:       1

     Orbital Basis Set                                                  TZP-ZORA

       Number of orbital shell sets:                                          16
       Number of orbital shells:                                              16
       Number of primitive Cartesian functions:                               26
       Number of Cartesian basis functions:                                   45
       Number of spherical basis functions:                                   40
       Norm type:                                                              2

       Normalised Cartesian orbitals:

                        Set   Shell   Orbital            Exponent    Coefficient

                          1       1    1s           131334.981146      10.441701
                                                     20181.900419      16.179351
                                                      4835.704631      25.099201
                                                      1439.738154      38.502832
                                                       476.154263      55.742865

                          2       1    1s              168.682520      33.358972

                          3       1    1s               62.922540      15.922629

                          4       1    1s               24.333300       7.808378

                          5       1    1s                6.865738       3.022912

                          6       1    1s                3.374956      -1.169784
                                                         1.517499      -0.357770

                          7       1    1s                0.446515       0.389302

                          8       1    1s                0.161742       0.181772

                          9       1    1px             754.152359      10.271879
                                                       193.633447      12.718958
                                                        64.141062      15.240188
                                                        23.757144      14.650983
                                                         9.452343       9.664480
                                                         3.939968       3.799949
                          9       1    1py             754.152359      10.271879
                                                       193.633447      12.718958
                                                        64.141062      15.240188
                                                        23.757144      14.650983
                                                         9.452343       9.664480
                                                         3.939968       3.799949
                          9       1    1pz             754.152359      10.271879
                                                       193.633447      12.718958
                                                        64.141062      15.240188
                                                        23.757144      14.650983
                                                         9.452343       9.664480
                                                         3.939968       3.799949

                         10       1    1px               1.720806       2.809343
                         10       1    1py               1.720806       2.809343
                         10       1    1pz               1.720806       2.809343

                         11       1    1px               0.770763       1.029417
                         11       1    1py               0.770763       1.029417
                         11       1    1pz               0.770763       1.029417

                         12       1    1px               0.287374       0.299916
                         12       1    1py               0.287374       0.299916
                         12       1    1pz               0.287374       0.299916

                         13       1    1px               0.101132       0.081293
                         13       1    1py               0.101132       0.081293
                         13       1    1pz               0.101132       0.081293

                         14       1    1dx2              0.781337       1.068751
                         14       1    1dxy              0.781337       1.851131
                         14       1    1dxz              0.781337       1.851131
                         14       1    1dy2              0.781337       1.068751
                         14       1    1dyz              0.781337       1.851131
                         14       1    1dz2              0.781337       1.068751

                         15       1    1dx2              0.264839       0.160927
                         15       1    1dxy              0.264839       0.278733
                         15       1    1dxz              0.264839       0.278733
                         15       1    1dy2              0.264839       0.160927
                         15       1    1dyz              0.264839       0.278733
                         15       1    1dz2              0.264839       0.160927

                         16       1    1fx3              0.583790       0.438563
                         16       1    1fx2y             0.583790       0.980657
                         16       1    1fx2z             0.583790       0.980657
                         16       1    1fxy2             0.583790       0.980657
                         16       1    1fxyz             0.583790       1.698547
                         16       1    1fxz2             0.583790       0.980657
                         16       1    1fy3              0.583790       0.438563
                         16       1    1fy2z             0.583790       0.980657
                         16       1    1fyz2             0.583790       0.980657
                         16       1    1fz3              0.583790       0.438563

       Atomic covalent radius [Angstrom]:                                  1.020

       Atomic van der Waals radius [Angstrom]:                             1.800

     The atoms of this atomic kind are PAW atoms (GAPW):
       Hard Gaussian function radius:                                      1.512
       Rho0 radius:                                                        1.512
       Maximum GTO radius used for PAW projector construction:            24.566

     GAPW Soft Basis Set                                           TZP-ZORA_soft

       Number of orbital shell sets:                                          16
       Number of orbital shells:                                              16
       Number of primitive Cartesian functions:                               12
       Number of Cartesian basis functions:                                   45
       Number of spherical basis functions:                                   40
       Norm type:                                                              2

       Normalised Cartesian orbitals:

                        Set   Shell   Orbital            Exponent    Coefficient

                          1       1    1s         

                          2       1    1s         

                          3       1    1s         

                          4       1    1s         

                          5       1    1s         

                          6       1    1s                3.374956      -1.169784
                                                         1.517499      -0.357770

                          7       1    1s                0.446515       0.389302

                          8       1    1s                0.161742       0.181772

                          9       1    1px               3.939968       3.799949
                          9       1    1py               3.939968       3.799949
                          9       1    1pz               3.939968       3.799949

                         10       1    1px               1.720806       2.809343
                         10       1    1py               1.720806       2.809343
                         10       1    1pz               1.720806       2.809343

                         11       1    1px               0.770763       1.029417
                         11       1    1py               0.770763       1.029417
                         11       1    1pz               0.770763       1.029417

                         12       1    1px               0.287374       0.299916
                         12       1    1py               0.287374       0.299916
                         12       1    1pz               0.287374       0.299916

                         13       1    1px               0.101132       0.081293
                         13       1    1py               0.101132       0.081293
                         13       1    1pz               0.101132       0.081293

                         14       1    1dx2              0.781337       1.068751
                         14       1    1dxy              0.781337       1.851131
                         14       1    1dxz              0.781337       1.851131
                         14       1    1dy2              0.781337       1.068751
                         14       1    1dyz              0.781337       1.851131
                         14       1    1dz2              0.781337       1.068751

                         15       1    1dx2              0.264839       0.160927
                         15       1    1dxy              0.264839       0.278733
                         15       1    1dxz              0.264839       0.278733
                         15       1    1dy2              0.264839       0.160927
                         15       1    1dyz              0.264839       0.278733
                         15       1    1dz2              0.264839       0.160927

                         16       1    1fx3              0.583790       0.438563
                         16       1    1fx2y             0.583790       0.980657
                         16       1    1fx2z             0.583790       0.980657
                         16       1    1fxy2             0.583790       0.980657
                         16       1    1fxyz             0.583790       1.698547
                         16       1    1fxz2             0.583790       0.980657
                         16       1    1fy3              0.583790       0.438563
                         16       1    1fy2z             0.583790       0.980657
                         16       1    1fyz2             0.583790       0.980657
                         16       1    1fz3              0.583790       0.438563

     AE Potential information for                                            ALL

       Description:                                       All-electron potential
                                          Krack, Parrinello, PCCP 2, 2105 (2000)

       Gaussian exponent of the core charge distribution:               2.834467
       Electronic configuration (s p d ...):                           6  10   0

  2. Atomic kind: C                                     Number of atoms:       1

     Orbital Basis Set                                                  TZP-ZORA

       Number of orbital shell sets:                                          11
       Number of orbital shells:                                              11
       Number of primitive Cartesian functions:                               19
       Number of Cartesian basis functions:                                   36
       Number of spherical basis functions:                                   31
       Norm type:                                                              2

       Normalised Cartesian orbitals:

                        Set   Shell   Orbital            Exponent    Coefficient

                          1       1    1s             7615.059991       1.058240
                                                      1145.086846       1.933008
                                                       261.919524       3.218528
                                                        74.668342       4.773822
                                                        24.405512       5.743063

                          2       1    1s                8.686790       2.126261
                                                         3.236576       0.778233

                          3       1    1s                1.301800       0.868597

                          4       1    1s                0.527689       0.441259

                          5       1    1s                0.156945       0.177714

                          6       1    1px              34.507679       1.410559
                                                         7.913044       1.480250
                                                         2.366155       1.321166
                                                         0.811724       0.784026
                          6       1    1py              34.507679       1.410559
                                                         7.913044       1.480250
                                                         2.366155       1.321166
                                                         0.811724       0.784026
                          6       1    1pz              34.507679       1.410559
                                                         7.913044       1.480250
                                                         2.366155       1.321166
                                                         0.811724       0.784026

                          7       1    1px               0.312289       0.332763
                          7       1    1py               0.312289       0.332763
                          7       1    1pz               0.312289       0.332763

                          8       1    1px               0.114003       0.094424
                          8       1    1py               0.114003       0.094424
                          8       1    1pz               0.114003       0.094424

                          9       1    1dx2              1.154049       2.114959
                          9       1    1dxy              1.154049       3.663216
                          9       1    1dxz              1.154049       3.663216
                          9       1    1dy2              1.154049       2.114959
                          9       1    1dyz              1.154049       3.663216
                          9       1    1dz2              1.154049       2.114959

                         10       1    1dx2              0.351129       0.263618
                         10       1    1dxy              0.351129       0.456600
                         10       1    1dxz              0.351129       0.456600
                         10       1    1dy2              0.351129       0.263618
                         10       1    1dyz              0.351129       0.456600
                         10       1    1dz2              0.351129       0.263618

                         11       1    1fx3              0.819312       0.940190
                         11       1    1fx2y             0.819312       2.102328
                         11       1    1fx2z             0.819312       2.102328
                         11       1    1fxy2             0.819312       2.102328
                         11       1    1fxyz             0.819312       3.641338
                         11       1    1fxz2             0.819312       2.102328
                         11       1    1fy3              0.819312       0.940190
                         11       1    1fy2z             0.819312       2.102328
                         11       1    1fyz2             0.819312       2.102328
                         11       1    1fz3              0.819312       0.940190

       Atomic covalent radius [Angstrom]:                                  0.770

       Atomic van der Waals radius [Angstrom]:                             1.700

     The atoms of this atomic kind are PAW atoms (GAPW):
       Hard Gaussian function radius:                                      1.512
       Rho0 radius:                                                        1.512
       Maximum GTO radius used for PAW projector construction:            24.566

     GAPW Soft Basis Set                                           TZP-ZORA_soft

       Number of orbital shell sets:                                          11
       Number of orbital shells:                                              11
       Number of primitive Cartesian functions:                               11
       Number of Cartesian basis functions:                                   36
       Number of spherical basis functions:                                   31
       Norm type:                                                              2

       Normalised Cartesian orbitals:

                        Set   Shell   Orbital            Exponent    Coefficient

                          1       1    1s         

                          2       1    1s                3.236576       0.778233

                          3       1    1s                1.301800       0.868597

                          4       1    1s                0.527689       0.441259

                          5       1    1s                0.156945       0.177714

                          6       1    1px               2.366155       1.321166
                                                         0.811724       0.784026
                          6       1    1py               2.366155       1.321166
                                                         0.811724       0.784026
                          6       1    1pz               2.366155       1.321166
                                                         0.811724       0.784026

                          7       1    1px               0.312289       0.332763
                          7       1    1py               0.312289       0.332763
                          7       1    1pz               0.312289       0.332763

                          8       1    1px               0.114003       0.094424
                          8       1    1py               0.114003       0.094424
                          8       1    1pz               0.114003       0.094424

                          9       1    1dx2              1.154049       2.114959
                          9       1    1dxy              1.154049       3.663216
                          9       1    1dxz              1.154049       3.663216
                          9       1    1dy2              1.154049       2.114959
                          9       1    1dyz              1.154049       3.663216
                          9       1    1dz2              1.154049       2.114959

                         10       1    1dx2              0.351129       0.263618
                         10       1    1dxy              0.351129       0.456600
                         10       1    1dxz              0.351129       0.456600
                         10       1    1dy2              0.351129       0.263618
                         10       1    1dyz              0.351129       0.456600
                         10       1    1dz2              0.351129       0.263618

                         11       1    1fx3              0.819312       0.940190
                         11       1    1fx2y             0.819312       2.102328
                         11       1    1fx2z             0.819312       2.102328
                         11       1    1fxy2             0.819312       2.102328
                         11       1    1fxyz             0.819312       3.641338
                         11       1    1fxz2             0.819312       2.102328
                         11       1    1fy3              0.819312       0.940190
                         11       1    1fy2z             0.819312       2.102328
                         11       1    1fyz2             0.819312       2.102328
                         11       1    1fz3              0.819312       0.940190

     AE Potential information for                                            ALL

       Description:                                       All-electron potential
                                          Krack, Parrinello, PCCP 2, 2105 (2000)

       Gaussian exponent of the core charge distribution:               4.109048
       Electronic configuration (s p d ...):                           4   2   0

  3. Atomic kind: H                                     Number of atoms:       2

     Orbital Basis Set                                                  TZP-ZORA

       Number of orbital shell sets:                                           6
       Number of orbital shells:                                               6
       Number of primitive Cartesian functions:                                8
       Number of Cartesian basis functions:                                   15
       Number of spherical basis functions:                                   14
       Norm type:                                                              2

       Normalised Cartesian orbitals:

                        Set   Shell   Orbital            Exponent    Coefficient

                          1       1    1s               34.877584       0.254499
                                                         5.233973       0.449285
                                                         1.185033       0.695456

                          2       1    1s                0.328339       0.309138

                          3       1    1s                0.110319       0.136426

                          4       1    1px               0.718844       0.943482
                          4       1    1py               0.718844       0.943482
                          4       1    1pz               0.718844       0.943482

                          5       1    1px               0.350000       0.383729
                          5       1    1py               0.350000       0.383729
                          5       1    1pz               0.350000       0.383729

                          6       1    1dx2              1.075060       1.868171
                          6       1    1dxy              1.075060       3.235768
                          6       1    1dxz              1.075060       3.235768
                          6       1    1dy2              1.075060       1.868171
                          6       1    1dyz              1.075060       3.235768
                          6       1    1dz2              1.075060       1.868171

       Atomic covalent radius [Angstrom]:                                  0.320

       Atomic van der Waals radius [Angstrom]:                             1.090

     The atoms of this atomic kind are PAW atoms (GAPW):
       Hard Gaussian function radius:                                      1.200
       Rho0 radius:                                                        1.200
       Maximum GTO radius used for PAW projector construction:            24.566

     GAPW Soft Basis Set                                           TZP-ZORA_soft

       Number of orbital shell sets:                                           6
       Number of orbital shells:                                               6
       Number of primitive Cartesian functions:                                7
       Number of Cartesian basis functions:                                   15
       Number of spherical basis functions:                                   14
       Norm type:                                                              2

       Normalised Cartesian orbitals:

                        Set   Shell   Orbital            Exponent    Coefficient

                          1       1    1s                5.233973       0.449285
                                                         1.185033       0.695456

                          2       1    1s                0.328339       0.309138

                          3       1    1s                0.110319       0.136426

                          4       1    1px               0.718844       0.943482
                          4       1    1py               0.718844       0.943482
                          4       1    1pz               0.718844       0.943482

                          5       1    1px               0.350000       0.383729
                          5       1    1py               0.350000       0.383729
                          5       1    1pz               0.350000       0.383729

                          6       1    1dx2              1.075060       1.868171
                          6       1    1dxy              1.075060       3.235768
                          6       1    1dxz              1.075060       3.235768
                          6       1    1dy2              1.075060       1.868171
                          6       1    1dyz              1.075060       3.235768
                          6       1    1dz2              1.075060       1.868171

     AE Potential information for                                            ALL

       Description:                                       All-electron potential
                                          Krack, Parrinello, PCCP 2, 2105 (2000)

       Gaussian exponent of the core charge distribution:              12.500000
       Electronic configuration (s p d ...):                           1   0   0


 MOLECULE KIND INFORMATION


 All atoms are their own molecule, skipping detailed information


 TOTAL NUMBERS AND MAXIMUM NUMBERS

  Total number of            - Atomic kinds:                                   3
                             - Atoms:                                          4
                             - Shell sets:                                    39
                             - Shells:                                        39
                             - Primitive Cartesian functions:                 61
                             - Cartesian basis functions:                    111
                             - Spherical basis functions:                     99

  Maximum angular momentum of the orbital basis functions:                     3


 MODULE QUICKSTEP: ATOMIC COORDINATES IN ANGSTROM

   Atom Kind Element         X             Y             Z       Z(eff)     Mass
      1    1 S    16     10.847829     10.797429      9.615020  16.0000  32.0650
      2    2 C     6      9.756105      9.642393      9.897872   6.0000  12.0107
      3    3 H     1      9.152171      9.202571      9.095111   1.0000   1.0079
      4    3 H     1      9.571815      9.248402     10.904889   1.0000   1.0079



 SCF PARAMETERS         Density guess:                                   RESTART
                        --------------------------------------------------------
                        max_scf:                                              20
                        max_scf_history:                                       0
                        max_diis:                                              4
                        --------------------------------------------------------
                        eps_scf:                                        1.00E-07
                        eps_scf_history:                                0.00E+00
                        eps_diis:                                       1.00E-01
                        eps_eigval:                                     1.00E-05
                        --------------------------------------------------------
                        level_shift [a.u.]:                             0.000000
                        --------------------------------------------------------
                        Outer loop SCF in use 
                        No variables optimised in outer loop
                        eps_scf                                         1.00E-07
                        max_scf                                               50
                        No outer loop optimization
                        step_size                                       5.00E-01

 PW_GRID| Information for grid number                                          1
 PW_GRID| Grid distributed over                                   128 processors
 PW_GRID| Real space group dimensions                                   128    1
 PW_GRID| the grid is blocked:                                                NO
 PW_GRID| Cutoff [a.u.]                                                   1200.0
 PW_GRID| spherical cutoff:                                                   NO
 PW_GRID|   Bounds   1           -300     299                Points:         600
 PW_GRID|   Bounds   2           -300     299                Points:         600
 PW_GRID|   Bounds   3           -300     299                Points:         600
 PW_GRID| Volume element (a.u.^3)  0.2499E-03     Volume (a.u.^3)     53986.6767
 PW_GRID| Grid span                                                    FULLSPACE
 PW_GRID|   Distribution                         Average         Max         Min
 PW_GRID|   G-Vectors                          1687500.0     1687800     1687200
 PW_GRID|   G-Rays                                2812.5        2813        2812
 PW_GRID|   Real Space Points                  1687500.0     1800000     1440000

 PW_GRID| Information for grid number                                          2
 PW_GRID| Number of the reference grid                                         1
 PW_GRID| Grid distributed over                                   128 processors
 PW_GRID| Real space group dimensions                                   128    1
 PW_GRID| the grid is blocked:                                                NO
 PW_GRID| Cutoff [a.u.]                                                    600.0
 PW_GRID| spherical cutoff:                                                   NO
 PW_GRID|   Bounds   1           -216     215                Points:         432
 PW_GRID|   Bounds   2           -216     215                Points:         432
 PW_GRID|   Bounds   3           -216     215                Points:         432
 PW_GRID| Volume element (a.u.^3)  0.6696E-03     Volume (a.u.^3)     53986.6767
 PW_GRID| Grid span                                                    FULLSPACE
 PW_GRID|   Distribution                         Average         Max         Min
 PW_GRID|   G-Vectors                           629856.0      630288      629424
 PW_GRID|   G-Rays                                1458.0        1459        1457
 PW_GRID|   Real Space Points                   629856.0      746496      559872

 PW_GRID| Information for grid number                                          3
 PW_GRID| Number of the reference grid                                         2
 PW_GRID| Grid distributed over                                   128 processors
 PW_GRID| Real space group dimensions                                   128    1
 PW_GRID| the grid is blocked:                                                NO
 PW_GRID| Cutoff [a.u.]                                                    200.0
 PW_GRID| spherical cutoff:                                                   NO
 PW_GRID|   Bounds   1           -121     121                Points:         243
 PW_GRID|   Bounds   2           -121     121                Points:         243
 PW_GRID|   Bounds   3           -121     121                Points:         243
 PW_GRID| Volume element (a.u.^3)  0.3762E-02     Volume (a.u.^3)     53986.6767
 PW_GRID| Grid span                                                    FULLSPACE
 PW_GRID|   Distribution                         Average         Max         Min
 PW_GRID|   G-Vectors                           112100.8      112266      111780
 PW_GRID|   G-Rays                                 461.3         462         460
 PW_GRID|   Real Space Points                   112100.8      118098       59049

 PW_GRID| Information for grid number                                          4
 PW_GRID| Number of the reference grid                                         2
 PW_GRID| Grid distributed over                                   128 processors
 PW_GRID| Real space group dimensions                                   128    1
 PW_GRID| the grid is blocked:                                                NO
 PW_GRID| Cutoff [a.u.]                                                     66.7
 PW_GRID| spherical cutoff:                                                   NO
 PW_GRID|   Bounds   1            -72      71                Points:         144
 PW_GRID|   Bounds   2            -72      71                Points:         144
 PW_GRID|   Bounds   3            -72      71                Points:         144
 PW_GRID| Volume element (a.u.^3)  0.1808E-01     Volume (a.u.^3)     53986.6767
 PW_GRID| Grid span                                                    FULLSPACE
 PW_GRID|   Distribution                         Average         Max         Min
 PW_GRID|   G-Vectors                            23328.0       23472       23184
 PW_GRID|   G-Rays                                 162.0         163         161
 PW_GRID|   Real Space Points                    23328.0       41472       20736

 PW_GRID| Information for grid number                                          5
 PW_GRID| Number of the reference grid                                         2
 PW_GRID| Grid distributed over                                   128 processors
 PW_GRID| Real space group dimensions                                     8   16
 PW_GRID| the grid is blocked:                                                NO
 PW_GRID| Cutoff [a.u.]                                                     22.2
 PW_GRID| spherical cutoff:                                                   NO
 PW_GRID|   Bounds   1            -40      40                Points:          81
 PW_GRID|   Bounds   2            -40      40                Points:          81
 PW_GRID|   Bounds   3            -40      40                Points:          81
 PW_GRID| Volume element (a.u.^3)  0.1016         Volume (a.u.^3)     53986.6767
 PW_GRID| Grid span                                                    FULLSPACE
 PW_GRID|   Distribution                         Average         Max         Min
 PW_GRID|   G-Vectors                             4151.9        4293        4050
 PW_GRID|   G-Rays                                  51.3          53          50
 PW_GRID|   Real Space Points                     4151.9        5346        4050

 PW_GRID| Information for grid number                                          6
 PW_GRID| Number of the reference grid                                         2
 PW_GRID| Grid distributed over                                   128 processors
 PW_GRID| Real space group dimensions                                     8   16
 PW_GRID| the grid is blocked:                                                NO
 PW_GRID| Cutoff [a.u.]                                                      7.4
 PW_GRID| spherical cutoff:                                                   NO
 PW_GRID|   Bounds   1            -24      23                Points:          48
 PW_GRID|   Bounds   2            -24      23                Points:          48
 PW_GRID|   Bounds   3            -24      23                Points:          48
 PW_GRID| Volume element (a.u.^3)  0.4882         Volume (a.u.^3)     53986.6767
 PW_GRID| Grid span                                                    FULLSPACE
 PW_GRID|   Distribution                         Average         Max         Min
 PW_GRID|   G-Vectors                              864.0         912         816
 PW_GRID|   G-Rays                                  18.0          19          17
 PW_GRID|   Real Space Points                      864.0         864         864

 POISSON| Solver                                          Martyna-Tuckerman (MT)
 POISSON| MT| Alpha                                                        7.000
 POISSON| MT| Relative cutoff                                                2.0
 POISSON| Periodicity                                                       NONE

 RS_GRID| Information for grid number                                          2
 RS_GRID|   Bounds   1           -216     215                Points:         432
 RS_GRID|   Bounds   2           -216     215                Points:         432
 RS_GRID|   Bounds   3           -216     215                Points:         432
 RS_GRID| Real space distribution over                                  4 groups
 RS_GRID| Real space distribution along direction                              1
 RS_GRID| Border size                                                         44
 RS_GRID| Real space distribution over                                  4 groups
 RS_GRID| Real space distribution along direction                              2
 RS_GRID| Border size                                                         44
 RS_GRID| Real space distribution over                                  8 groups
 RS_GRID| Real space distribution along direction                              3
 RS_GRID| Border size                                                         44
 RS_GRID|   Distribution                         Average         Max         Min
 RS_GRID|   Planes                                 196.0         196         196
 RS_GRID|   Distribution                         Average         Max         Min
 RS_GRID|   Planes                                 196.0         196         196
 RS_GRID|   Distribution                         Average         Max         Min
 RS_GRID|   Planes                                 142.0         142         142

 RS_GRID| Information for grid number                                          3
 RS_GRID|   Bounds   1           -121     121                Points:         243
 RS_GRID|   Bounds   2           -121     121                Points:         243
 RS_GRID|   Bounds   3           -121     121                Points:         243
 RS_GRID| Real space distribution over                                  4 groups
 RS_GRID| Real space distribution along direction                              1
 RS_GRID| Border size                                                         35
 RS_GRID| Real space distribution over                                  4 groups
 RS_GRID| Real space distribution along direction                              2
 RS_GRID| Border size                                                         35
 RS_GRID| Real space distribution over                                  8 groups
 RS_GRID| Real space distribution along direction                              3
 RS_GRID| Border size                                                         35
 RS_GRID|   Distribution                         Average         Max         Min
 RS_GRID|   Planes                                 130.8         131         130
 RS_GRID|   Distribution                         Average         Max         Min
 RS_GRID|   Planes                                 130.8         131         130
 RS_GRID|   Distribution                         Average         Max         Min
 RS_GRID|   Planes                                 100.4         101         100

 RS_GRID| Information for grid number                                          4
 RS_GRID|   Bounds   1            -72      71                Points:         144
 RS_GRID|   Bounds   2            -72      71                Points:         144
 RS_GRID|   Bounds   3            -72      71                Points:         144
 RS_GRID| Real space fully replicated
 RS_GRID| Group size                                                           1

 RS_GRID| Information for grid number                                          5
 RS_GRID|   Bounds   1            -40      40                Points:          81
 RS_GRID|   Bounds   2            -40      40                Points:          81
 RS_GRID|   Bounds   3            -40      40                Points:          81
 RS_GRID| Real space fully replicated
 RS_GRID| Group size                                                           1

 RS_GRID| Information for grid number                                          6
 RS_GRID|   Bounds   1            -24      23                Points:          48
 RS_GRID|   Bounds   2            -24      23                Points:          48
 RS_GRID|   Bounds   3            -24      23                Points:          48
 RS_GRID| Real space fully replicated
 RS_GRID| Group size                                                           1

  HFX_INFO| Replica ID:                                                        1
  HFX_INFO| FRACTION:                                               0.2500000000
  HFX_INFO| Interaction Potential:                                       COULOMB
  HFX_INFO| EPS_SCHWARZ:                                                 1.0E-10
  HFX_INFO| EPS_SCHWARZ_FORCES                                           1.0E-06
  HFX_INFO| EPS_STORAGE_SCALING:                                         1.0E+00
  HFX_INFO| NBINS:                                                            64
  HFX_INFO| BLOCK_SIZE:                                                        1
  HFX_INFO| Number of periodic shells considered:                           NONE
  HFX_INFO| Number of periodic cells considered:                            NONE


 Number of electrons:                                                         24
 Number of occupied orbitals:                                                 12
 Number of molecular orbitals:                                                12

 Number of orbital functions:                                                 99
 Number of independent orbital functions:                                     99

 Extrapolation method: initial_guess


 SCF WAVEFUNCTION OPTIMIZATION

  ----------------------------------- OT ---------------------------------------
  Minimizer      : DIIS                : direct inversion
                                         in the iterative subspace
                                         using   7 DIIS vectors
                                         safer DIIS on
  Preconditioner : FULL_ALL            : diagonalization, state selective
  Precond_solver : DEFAULT
  stepsize       :    0.15000000                  energy_gap     :    0.08000000
  eps_taylor     :   0.10000E-15                  max_taylor     :             4
  ----------------------------------- OT ---------------------------------------

  Step     Update method      Time    Convergence         Total energy    Change
  ------------------------------------------------------------------------------

  HFX_MEM_INFO| Est. max. program size before HFX [MiB]:                     954
  HFX_MEM_INFO| Number of cart. primitive ERI's calculated:            117231057
  HFX_MEM_INFO| Number of sph. ERI's calculated:                        23269797
  HFX_MEM_INFO| Number of sph. ERI's stored in-core:                    23269797
  HFX_MEM_INFO| Number of sph. ERI's stored on disk:                           0
  HFX_MEM_INFO| Number of sph. ERI's calculated on the fly:                    0
  HFX_MEM_INFO| Total memory consumption ERI's RAM [MiB]:                     70
  HFX_MEM_INFO| Whereof max-vals [MiB]:                                        2
  HFX_MEM_INFO| Total compression factor ERI's RAM:                         2.57
  HFX_MEM_INFO| Total memory consumption ERI's disk [MiB]:                     0
  HFX_MEM_INFO| Total compression factor ERI's disk:                        0.00
  HFX_MEM_INFO| Size of density/Fock matrix [MiB]:                             0
  HFX_MEM_INFO| Size of buffers [MiB]:                                         1
  HFX_MEM_INFO| Est. max. program size after HFX  [MiB]:                     955

     1 OT DIIS     0.15E+00  104.3     8.6286E-09      -437.2954929307 -4.37E+02

  *** SCF run converged in     1 steps ***


  Electronic density on regular grids:        -15.6430648784        8.3569351216
  Core density on regular grids:               24.0000000000       -0.0000000000
  Hard and soft densities (Lebedev):          -28.9521069867      -20.5951713139
  Total Rho_soft + Rho1_hard - Rho1_soft      -24.0000005512
  Total charge density (r-space):              -0.0000005512
  Total Rho_soft + Rho0_soft (g-space):        -0.0000003960

  Overlap energy of the core charge distribution:               0.00000219721401
  Self energy of the core charge distribution:               -203.87718666563003
  Core Hamiltonian energy:                                   -234.80843771972829
  Hartree energy:                                              58.45699280972326
  Exchange-correlation energy:                                 -6.29158664276936
  Hartree-Fock Exchange energy:                                -7.71063301086421

  GAPW| Exc from hard and soft atomic rho1:                   -17.60149924537880
  GAPW| local Eh = 1 center integrals:                        -25.46314465321680

  Total energy:                                              -437.29549293065020

  outer SCF iter =    1 RMS gradient =   0.86E-08 energy =       -437.2954929307
  outer SCF loop converged in   1 iterations or    1 steps


 !-----------------------------------------------------------------------------!
                     Mulliken Population Analysis

 #  Atom  Element  Kind  Atomic population                           Net charge
       1     S        1         16.140563                             -0.140563
       2     C        2          6.049729                             -0.049729
       3     H        3          0.904857                              0.095143
       4     H        3          0.904851                              0.095149
 # Total charge                             24.000000                 -0.000000

 !-----------------------------------------------------------------------------!

 !-----------------------------------------------------------------------------!
                           Hirshfeld Charges

  #Atom  Element  Kind  Ref Charge     Population                    Net charge
      1       S      1      16.000         16.583                        -0.583
      2       C      2       6.000          6.406                        -0.406
      3       H      3       1.000          0.504                         0.496
      4       H      3       1.000          0.504                         0.496

  Total Charge                                                            0.002
 !-----------------------------------------------------------------------------!

 *******************************************************************************
 **                                                                           **
 **         ######## #######   #######   ######## #######  ########           **
 **            ##    ##     ## ##     ## ##       ##   ##     ##              **
 **            ##    ##     ## ##     ## ######   #######     ##              **
 **            ##    ##     ## ##     ## ##       ##          ##              **
 **            ##    #######   #######   ##       ##          ##              **
 **                                                                           **
 *******************************************************************************
 KERNEL|                                                                    FULL
 FUNCTIONAL| PBE:
 FUNCTIONAL| J.P.Perdew, K.Burke, M.Ernzerhof, Phys. Rev. Letter, vol. 77, n 18,
 FUNCTIONAL|  pp. 3865-3868, (1996)sx=0.750sc=1.000{spin unpolarized}           
 KERNEL|                                                          Exact Exchange
 KERNEL| Spin symmetry of excitations                                    Triplet
 TDDFPT| Number of states calculated                                          10
 TDDFPT| Number of Davidson iterations                                        20
 TDDFPT| Davidson iteration convergence                                0.100E-07
 TDDFPT| Max. number of Krylov space vectors                                  60
 TDDFPT| Molecular Orbitals:        Spin       AOs       Occ      Virt     Total
 TDDFPT|                               1        99        12        87        99

 *******************************************************************************
 **                                                                           **
 **                            ####### ####### #######                        **
 **                        #   ##      ##   ## ##                             **
 **                       ###  ######  ##   ## ##                             **
 **                        #       ##  ##   ## ##                             **
 **                            ######  ####### #######                        **
 **                 Based on the xas module from Augustin Bussy               **
 *******************************************************************************
 
 -------------------------------------------------------------------------------
 -                      TDDFPT TRIPLET ENERGIES                                 -
 -------------------------------------------------------------------------------
 
 -------------------------------------------------------------------------------
 -                            TDDFPT Initial Guess                             -
 -------------------------------------------------------------------------------
          State         Occupied      ->      Virtual          Excitation
          number         orbital              orbital          energy (eV)
 -------------------------------------------------------------------------------
             1               12                   13              4.14287
             2               11                   13              6.57737
             3               12                   14              8.22081
             4               10                   13              8.61278
             5               12                   15              9.51615
             6               12                   16              9.89202
             7                9                   13             10.49151
             8               11                   14             10.65531
             9               11                   15             11.95064
            10               12                   17             12.04937

      Number of active states:                                       1044
 -------------------------------------------------------------------------------
 
 -------------------------------------------------------------------------------
 -                      TDDFPT WAVEFUNCTION OPTIMIZATION                       -
 -------------------------------------------------------------------------------

          Step            Time         Convergence           Conv. states
 -------------------------------------------------------------------------------

    State    Exc. energy (eV)      Convergence (eV)
        1       1.7233733            -2.4195E+00
        2       3.3172031            -3.2602E+00
        3       5.7892531            -2.4316E+00
        4       6.3650978            -2.2477E+00
        5       7.8121946            -1.7040E+00
        6       7.8730758            -2.0189E+00
        7       7.9308559            -2.5607E+00
        8       8.8133756            -1.8419E+00
        9      10.1694555            -1.7812E+00
       10      10.2658388            -1.7835E+00
 
             1           553.5          1.1981E-01                      0

    State    Exc. energy (eV)      Convergence (eV)
        1       1.6585655            -6.4808E-02
        2       3.1865977            -1.3061E-01
        3       5.6555975            -1.3366E-01
        4       6.2570996            -1.0800E-01
        5       7.6971938            -1.1500E-01
        6       7.7907373            -8.2338E-02
        7       7.7995639            -1.3129E-01
        8       8.6355383            -1.7784E-01
        9      10.0322518            -1.3720E-01
       10      10.1933658            -7.2473E-02
 
             2           543.6          6.5354E-03                      0

    State    Exc. energy (eV)      Convergence (eV)
        1       1.6584385            -1.2700E-04
        2       3.1861415            -4.5618E-04
        3       5.6546921            -9.0538E-04
        4       6.2560731            -1.0265E-03
        5       7.6969170            -2.7685E-04
        6       7.7891462            -1.5911E-03
        7       7.7961261            -3.4378E-03
        8       8.6153877            -2.0151E-02
        9      10.0226311            -9.6207E-03
       10      10.1920390            -1.3267E-03
 
             3           519.6          7.4052E-04                      0

    State    Exc. energy (eV)      Convergence (eV)
        1       1.6584384            -1.3778E-07
        2       3.1861371            -4.4090E-06
        3       5.6546789            -1.3164E-05
        4       6.2560671            -6.0228E-06
        5       7.6969146            -2.3770E-06
        6       7.7891326            -1.3649E-05
        7       7.7960400            -8.6037E-05
        8       8.6142237            -1.1640E-03
        9      10.0223906            -2.4045E-04
       10      10.1919433            -9.5743E-05
 
             4           527.2          4.2775E-05                      1

    State    Exc. energy (eV)      Convergence (eV)
        1       1.6584384            -1.3121E-10
        2       3.1861371            -5.0489E-08
        3       5.6546788            -1.3723E-07
        4       6.2560671            -4.4995E-08
        5       7.6969146            -1.1019E-08
        6       7.7891325            -1.2571E-07
        7       7.7960364            -3.6468E-06
        8       8.6141479            -7.5818E-05
        9      10.0223843            -6.3239E-06
       10      10.1368464            -5.5097E-02
 
             5           512.1          2.0248E-03                      6

    State    Exc. energy (eV)      Convergence (eV)
        1       1.6584384            -4.0860E-13
        2       3.1861371            -4.1367E-10
        3       5.6546788            -7.4494E-10
        4       6.2560671            -7.0126E-10
        5       7.6969146            -2.0879E-11
        6       7.7891325            -1.3167E-09
        7       7.7960363            -9.0077E-08
        8       8.6141461            -1.7570E-06
        9      10.0223840            -3.0557E-07
       10      10.1165085            -2.0338E-02
 
             6           452.2          7.4740E-04                      7
 ------------------------- Restart Davidson iterations -------------------------

    State    Exc. energy (eV)      Convergence (eV)
        1       1.6584384             3.3987E-15
        2       3.1861371             6.0421E-15
        3       5.6546788             3.0211E-15
        4       6.2560671             9.6674E-14
        5       7.6969146            -1.5105E-15
        6       7.7891325            -2.7190E-14
        7       7.7960363            -9.0632E-15
        8       8.6141461             1.2840E-13
        9      10.0223840            -1.4954E-13
       10      10.1165085             9.0632E-15
 
             7           442.0          5.4956E-15                     10
 
 -------------------------------------------------------------------------------
 -  TDDFPT run converged in 7 iteration(s) 
 -------------------------------------------------------------------------------

 R-TDDFPT states of multiplicity 3
 Transition dipoles calculated using velocity formulation

         State    Excitation        Transition dipole (a.u.)        Oscillator
         number   energy (eV)       x           y           z     strength (a.u.)
         ------------------------------------------------------------------------
 TDDFPT|      1       1.65844   0.0000E+00  0.0000E+00  0.0000E+00   0.00000E+00
 TDDFPT|      2       3.18614   0.0000E+00  0.0000E+00  0.0000E+00   0.00000E+00
 TDDFPT|      3       5.65468   0.0000E+00  0.0000E+00  0.0000E+00   0.00000E+00
 TDDFPT|      4       6.25607   0.0000E+00  0.0000E+00  0.0000E+00   0.00000E+00
 TDDFPT|      5       7.69691   0.0000E+00  0.0000E+00  0.0000E+00   0.00000E+00
 TDDFPT|      6       7.78913   0.0000E+00  0.0000E+00  0.0000E+00   0.00000E+00
 TDDFPT|      7       7.79604   0.0000E+00  0.0000E+00  0.0000E+00   0.00000E+00
 TDDFPT|      8       8.61415   0.0000E+00  0.0000E+00  0.0000E+00   0.00000E+00
 TDDFPT|      9      10.02238   0.0000E+00  0.0000E+00  0.0000E+00   0.00000E+00
 TDDFPT|     10      10.11651   0.0000E+00  0.0000E+00  0.0000E+00   0.00000E+00

 TDDFPT : CheckSum  =  0.855322E+00
 
 -------------------------------------------------------------------------------
 -                            Excitation analysis                              -
 -------------------------------------------------------------------------------
        State             Occupied              Virtual             Excitation
        number             orbital              orbital             amplitude
 -------------------------------------------------------------------------------
             1   1.65844 eV
                                12                   13              -0.998148
             2   3.18614 eV
                                11                   13              -0.995944
                                11                   23               0.069260
             3   5.65468 eV
                                10                   13               0.994284
                                10                   23              -0.050020
             4   6.25607 eV
                                12                   14              -0.952178
                                12                   16               0.245957
                                12                   17              -0.138880
                                12                   22               0.068736
                                12                   19              -0.051729
             5   7.69691 eV
                                 9                   13              -0.994459
                                 9                   23               0.056818
                                11                   15               0.054573
             6   7.78913 eV
                                12                   16               0.957293
                                12                   14               0.260374
                                12                   17              -0.063597
                                 9                   14               0.059677
                                12                   19              -0.053174
             7   7.79604 eV
                                12                   15               0.986515
                                12                   20               0.119401
                                 9                   15               0.056095
             8   8.61415 eV
                                11                   14              -0.959782
                                11                   16               0.221173
                                11                   17              -0.107695
                                11                   19              -0.064987
                                11                   22               0.052993
                                 7                   13              -0.051501
             9  10.02238 eV
                                12                   17               0.963456
                                12                   19               0.126680
                                 9                   14              -0.125535
                                12                   14              -0.118592
                                12                   16               0.112255
                                12                   25              -0.079226
            10  10.11651 eV
                                11                   16              -0.928189
                                11                   14              -0.236465
                                 8                   13              -0.208708
                                11                   19               0.123101
                                11                   17               0.105645
                                12                   24               0.072848
 -------------------------------------------------------------------------------
 
 -------------------------------------------------------------------------------
 -                            Natural Orbital analysis                         -
 -------------------------------------------------------------------------------
   STATE NR.      1             1.65844 eV
     Particle-Hole state: 1   Spin:1     Eigenvalue: 0.99834   Sum Eigv: 0.99834
   STATE NR.      2             3.18614 eV
     Particle-Hole state: 1   Spin:1     Eigenvalue: 0.99713   Sum Eigv: 0.99713
   STATE NR.      3             5.65468 eV
     Particle-Hole state: 1   Spin:1     Eigenvalue: 0.99271   Sum Eigv: 0.99271
   STATE NR.      4             6.25607 eV
     Particle-Hole state: 1   Spin:1     Eigenvalue: 0.99490   Sum Eigv: 0.99490
   STATE NR.      5             7.69691 eV
     Particle-Hole state: 1   Spin:1     Eigenvalue: 0.99380   Sum Eigv: 0.99380
   STATE NR.      6             7.78913 eV
     Particle-Hole state: 1   Spin:1     Eigenvalue: 0.99398   Sum Eigv: 0.99398
   STATE NR.      7             7.79604 eV
     Particle-Hole state: 1   Spin:1     Eigenvalue: 0.99426   Sum Eigv: 0.99426
   STATE NR.      8             8.61415 eV
     Particle-Hole state: 1   Spin:1     Eigenvalue: 0.99077   Sum Eigv: 0.99077
   STATE NR.      9            10.02238 eV
     Particle-Hole state: 1   Spin:1     Eigenvalue: 0.97992   Sum Eigv: 0.97992
   STATE NR.     10            10.11651 eV
     Particle-Hole state: 1   Spin:1     Eigenvalue: 0.94655   Sum Eigv: 0.94655
     Particle-Hole state: 2   Spin:1     Eigenvalue: 0.04637   Sum Eigv: 0.99292
 -------------------------------------------------------------------------------
 
                       triplet excitations finished                             
                                                                                
 -------------------------------------------------------------------------------
 -                      TDDFPT SINGLET ENERGIES                                -
 -------------------------------------------------------------------------------
 
 -------------------------------------------------------------------------------
 -                            TDDFPT Initial Guess                             -
 -------------------------------------------------------------------------------
          State         Occupied      ->      Virtual          Excitation
          number         orbital              orbital          energy (eV)
[...]
 flops    31 x    14 x    12              2937312       0.0%    100.0%      0.0%
 flops    14 x    40 x    12              3790080       0.0%    100.0%      0.0%
 flops    40 x    14 x    12              3790080       0.0%    100.0%      0.0%
 flops    14 x    14 x    12              3979584       0.0%    100.0%      0.0%
 flops    31 x    31 x    12              6504048       0.0%    100.0%      0.0%
 flops    31 x    40 x    12              8392320       0.0%    100.0%      0.0%
 flops    40 x    40 x    12             10828800       0.0%    100.0%      0.0%
 flops    12 x    12 x    14             11329920       0.0%    100.0%      0.0%
 flops    12 x    12 x    31             12543840       0.0%    100.0%      0.0%
 flops    12 x    12 x    40             16128000       0.0%    100.0%      0.0%
 flops    14 x    12 x    14             18712512       0.0%    100.0%      0.0%
 flops    31 x    12 x    14             19977888       0.0%    100.0%      0.0%
 flops    14 x    12 x    31             20061216       0.0%    100.0%      0.0%
 flops    31 x    12 x    31             23571408       0.0%    100.0%      0.0%
 flops    40 x    12 x    14             25777920       0.0%    100.0%      0.0%
 flops    14 x    12 x    40             25777920       0.0%    100.0%      0.0%
 flops    31 x    12 x    40             28539840       0.0%    100.0%      0.0%
 flops    40 x    12 x    31             28539840       0.0%    100.0%      0.0%
 flops    40 x    12 x    40             39244800       0.0%    100.0%      0.0%
 flops inhomo. stacks                      437760     100.0%      0.0%      0.0%
 flops total                       321.200568E+06       0.1%     99.9%      0.0%
 flops max/rank                    170.432208E+06       0.2%     99.8%      0.0%
 matmuls inhomo. stacks                        17     100.0%      0.0%      0.0%
 matmuls total                              24295       0.1%     99.9%      0.0%
 number of processed stacks                 23175       0.1%     99.9%      0.0%
 average stack size                                     1.0       1.0       0.0
 marketing flops                   354.761856E+06
 -------------------------------------------------------------------------------
 # multiplications                           1213
 max memory usage/rank               1.522909E+09
 # max total images/rank                        2
 # max 3D layers                                1
 # MPI messages exchanged                 4502656
 MPI messages size (bytes):
  total size                         1.216213E+09
  min size                           0.000000E+00
  max size                          22.720000E+03
  average size                     270.110199E+00
 MPI breakdown and total messages size (bytes):
             size <=      128             4279952                        0
       128 < size <=     8192              195663                672508504
      8192 < size <=    32768               27041                543704840
     32768 < size <=   131072                   0                        0
    131072 < size <=  4194304                   0                        0
   4194304 < size <= 16777216                   0                        0
  16777216 < size                               0                        0
 -------------------------------------------------------------------------------

 *** WARNING in dbcsr_mm.F:291 :: Using a non-square number of MPI ranks ***
 *** might lead to poor performance. Used ranks: 128 Suggested: 121 256  ***

 -------------------------------------------------------------------------------
 -                                                                             -
 -                      DBCSR MESSAGE PASSING PERFORMANCE                      -
 -                                                                             -
 -------------------------------------------------------------------------------
 ROUTINE             CALLS      AVE VOLUME [Bytes]
 MP_Bcast               44                     12.
 MP_Allreduce         4658                      8.
 MP_Alltoall         26750                  39207.
 MP_ISend            77478                    990.
 MP_IRecv            75150                    496.
 -------------------------------------------------------------------------------

 -------------------------------------------------------------------------------
 -                                                                             -
 -                                DBM STATISTICS                               -
 -                                                                             -
 -------------------------------------------------------------------------------
    M  x    N  x    K                                          COUNT     PERCENT
 -------------------------------------------------------------------------------

 -------------------------------------------------------------------------------
 -                                                                             -
 -                                GRID STATISTICS                              -
 -                                                                             -
 -------------------------------------------------------------------------------
 LP    KERNEL             BACKEND                              COUNT     PERCENT
 2     collocate general  CPU                                  37376      11.66%
 1     collocate ortho    CPU                                  37152      11.59%
 1     integrate ortho    CPU                                  36378      11.35%
 2     integrate general  CPU                                  36352      11.35%
 2     collocate ortho    CPU                                  32976      10.29%
 2     integrate ortho    CPU                                  32289      10.08%
 0     collocate ortho    CPU                                  22752       7.10%
 0     integrate ortho    CPU                                  22278       6.95%
 3     collocate ortho    CPU                                  20160       6.29%
 3     integrate ortho    CPU                                  19740       6.16%
 4     collocate ortho    CPU                                   8352       2.61%
 4     integrate ortho    CPU                                   8178       2.55%
 5     collocate ortho    CPU                                   2304       0.72%
 5     integrate ortho    CPU                                   2256       0.70%
 0     collocate general  CPU                                    512       0.16%
 0     integrate general  CPU                                    512       0.16%
 6     collocate ortho    CPU                                    432       0.13%
 6     integrate ortho    CPU                                    423       0.13%
 -------------------------------------------------------------------------------

 MEMORY| Estimated peak process memory [MiB]                                1465

 -------------------------------------------------------------------------------
 ----                             MULTIGRID INFO                            ----
 -------------------------------------------------------------------------------
 count for grid        1:        1294316          cutoff [a.u.]          600.00
 count for grid        2:         225583          cutoff [a.u.]          200.00
 count for grid        3:         247407          cutoff [a.u.]           66.67
 count for grid        4:          62808          cutoff [a.u.]           22.22
 count for grid        5:           3200          cutoff [a.u.]            7.41
 total gridlevel count  :        1833314

 -------------------------------------------------------------------------------
 -                                                                             -
 -                         MESSAGE PASSING PERFORMANCE                         -
 -                                                                             -
 -------------------------------------------------------------------------------

 ROUTINE             CALLS      AVE VOLUME [Bytes]
 MP_Group                6
 MP_Bcast             1352                 401989.
 MP_Allreduce         7331                  17291.
 MP_Sync              1471
 MP_Alltoall          3796               18535753.
 MP_SendRecv         54864                 127152.
 MP_ISendRecv       125349                  67433.
 MP_Wait            158892
 MP_comm_split          58
 MP_ISend            27778                 816599.
 MP_IRecv            30394                 746252.
 -------------------------------------------------------------------------------


 -------------------------------------------------------------------------------
 -                                                                             -
 -                           R E F E R E N C E S                               -
 -                                                                             -
 -------------------------------------------------------------------------------
 
 CP2K version 2024.1 (Development Version), the CP2K developers group (2024).
 CP2K is freely available from https://www.cp2k.org/ .

 Kuehne,Thomas D.; Iannuzzi,Marcella; Del Ben,Mauro;
 Rybkin,Vladimir V.; Seewald,Patrick; Stein,Frederick; Laino,Teodoro;
 Khaliullin,Rustam Z.; Schuett,Ole; Schiffmann,Florian; Golze,Dorothea;
 Wilhelm,Jan; Chulkov,Sergey; Bani-Hashemian,Mohammad Hossein;
 Weber,Valery; Borstnik,Urban; Taillefumier,Mathieu;
 Jakobovits,Alice Shoshana; Lazzaro,Alfio; Pabst,Hans; Mueller,Tiziano;
 Schade,Robert; Guidon,Manuel; Andermatt,Samuel; Holmberg,Nico;
 Schenter,Gregory K.; Hehn,Anna; Bussy,Augustin; Belleflamme,Fabian;
 Tabacchi,Gloria; Gloess,Andreas; Lass,Michael; Bethune,Iain;
 Mundy,Christopher J.; Plessl,Christian; Watkins,Matt;
 VandeVondele,Joost; Krack,Matthias; Hutter,Juerg. 
 The Journal of Chemical Physics, 152 (19), (2020). 
 CP2K: An electronic structure and molecular dynamics software package -
 Quickstep: Efficient and accurate electronic structure calculations.
 https://doi.org/10.1063/5.0007045

 Schuett, Ole; Messmer, Peter; Hutter, Juerg; VandeVondele, Joost. 
 Electronic Structure Calculations on Graphics Processing Units, John
 Wiley & Sons, Ltd, 173-190 (2016). 
 GPU-Accelerated Sparse Matrix-Matrix Multiplication for
 Linear Scaling Density Functional Theory.
 https://doi.org/10.1002/9781118670712.ch8

 Heinecke, A; Henry, G; Hutchinson, M; Pabst, H. 
 Proceedings of Intl. Supercomputing Conference, 981-991 (2016). 
 LIBXSMM: Accelerating Small Matrix Multiplications
 by Runtime Code Generation.
 https://doi.org/10.1109/SC.2016.83

 Borstnik, U; VandeVondele, J; Weber, V; Hutter, J. 
 PARALLEL COMPUTING, 40 (5-6), 47-58 (2014). 
 Sparse matrix multiplication: The distributed block-compressed sparse
 row library.
 https://doi.org/10.1016/j.parco.2014.03.012

 Hutter, J; Iannuzzi, M; Schiffmann, F; VandeVondele, J. 
 WIREs Comput Mol Sci., 4 (1), 15-25 (2014). 
 CP2K: atomistic simulations of condensed matter systems.
 https://doi.org/10.1002/wcms.1159

 Guidon, M; Hutter, J; VandeVondele, J. 
 JOURNAL OF CHEMICAL THEORY AND COMPUTATION, 5 (11), 3010-3021 (2009). 
 Robust Periodic Hartree-Fock Exchange for Large-Scale Simulations Using
 Gaussian Basis Sets.
 https://doi.org/10.1021/ct900494g

 Guidon, M; Schiffmann, F; Hutter, J; VandeVondele, J. 
 JOURNAL OF CHEMICAL PHYSICS, 128 (21), 214104 (2008). 
 Ab initio molecular dynamics using hybrid density functionals.
 https://doi.org/10.1063/1.2931945

 Frigo, M; Johnson, SG. 
 PROCEEDINGS OF THE IEEE, 93 (2), 216-231 (2005). 
 The design and implementation of FFTW3.
 https://doi.org/10.1109/JPROC.2004.840301

 Iannuzzi, M; Chassaing, T; Wallman, T; Hutter, J. 
 CHIMIA, 59 (7-8), 499-503 (2005). 
 Ground and excited state density functional calculations with the
 Gaussian and augmented-plane-wave method.
 https://doi.org/10.2533/000942905777676164

 VandeVondele, J; Hutter, J. 
 JOURNAL OF CHEMICAL PHYSICS, 118 (10), 4365-4369 (2003). 
 An efficient orbital transformation method for electronic structure
 calculations.
 https://doi.org/10.1063/1.1543154

 Martin,Richard L.. 
 The Journal of Chemical Physics, 118 (11), 4775-4777 (2003). 
 Natural transition orbitals.
 https://doi.org/10.1063/1.1558471

 Lippert, G; Hutter, J; Parrinello, M. 
 THEORETICAL CHEMISTRY ACCOUNTS, 103 (2), 124-140 (1999). 
 The Gaussian and augmented-plane-wave density functional method for ab
 initio molecular dynamics simulations.
 https://doi.org/10.1007/s002140050523

 Krack, M; Parrinello, M. 
 PHYSICAL CHEMISTRY CHEMICAL PHYSICS, 2 (10), 2105-2112 (2000). 
 All-electron ab-initio molecular dynamics.
 https://doi.org/10.1039/b001167n

 Martyna, GJ; Tuckerman, ME. 
 JOURNAL OF CHEMICAL PHYSICS, 110 (6), 2810-2821 (1999). 
 A reciprocal space based method for treating long range interactions in
 ab initio and force-field-based calculations in clusters.
 https://doi.org/10.1063/1.477923

 Perdew, JP; Burke, K; Ernzerhof, M. 
 PHYSICAL REVIEW LETTERS, 77 (18), 3865-3868 (1996). 
 Generalized gradient approximation made simple.
 https://doi.org/10.1103/PhysRevLett.77.3865


 -------------------------------------------------------------------------------
 -                                                                             -
 -                                T I M I N G                                  -
 -                                                                             -
 -------------------------------------------------------------------------------
 SUBROUTINE                       CALLS  ASD         SELF TIME        TOTAL TIME
                                MAXIMUM       AVERAGE  MAXIMUM  AVERAGE  MAXIMUM
 CP2K                                 1  1.0    4.376    4.486 8160.596 8160.646
 qs_energies                          1  2.0    0.022    0.081 8097.656 8097.730
 qs_energies_properties               1  3.0    0.001    0.013 7944.608 7944.675
 tddfpt                               1  4.0    0.020    0.097 7944.607 7944.675
 tddfpt_soc_energies                  1  5.0    0.003    0.027 7911.130 7911.199
 tddfpt_energies                      2  6.0    0.004    0.071 7829.855 7830.038
 tddfpt_davidson_solver               4  7.0    0.033    0.119 7035.856 7035.945
 tddfpt_compute_Aop_evects           14  8.0    0.008    0.044 6248.957 6249.220
 fhxc_kernel                         14  9.0    0.015    0.069 4166.524 4166.765
 mp_waitall_1                    264354 14.5 2176.498 2235.538 2176.498 2235.538
 tddfpt_apply_hfx                    14  9.0    0.007    0.036 1782.296 1782.381
 cp_dbcsr_sm_fm_multiply            881  9.5    0.011    0.024 1729.675 1744.961
 qs_rho_update_rho_low              144  9.9    0.013    0.059 1700.911 1703.748
 calculate_rho_elec                 144 10.9    0.311    0.515 1562.658 1564.378
 density_rs2pw                      144 11.9    0.015    0.066 1537.522 1542.501
 integrate_v_rspace                 141 10.0    0.007    0.030 1488.410 1491.791
 potential_pw2rs                    141 11.0    0.036    0.101 1452.490 1458.125
 dbcsr_complete_redistribute       2812 11.5    0.075    0.167 1373.369 1405.146
 transfer_rs2pw                     794 12.8    0.008    0.032 1351.027 1362.160
 transfer_pw2rs                     777 12.0    0.008    0.031 1338.401 1343.208
 mp_sendrecv_dv                   54864 14.9 1007.204 1133.539 1007.204 1133.539
 integrate_four_center              281 11.0    0.088    0.144 1096.874 1100.254
 tddft_hfx_matrix                   280 10.0    0.010    0.035 1082.471 1085.837
 copy_dbcsr_to_fm                   928 10.4    0.010    0.042  977.313  990.700
 transfer_pw2rs_70                  141 13.0    3.849    5.311  806.644  862.465
 transfer_rs2pw_70                  144 13.9    2.463    4.865  625.584  762.950
 mp_waitany                       27778 14.3  422.113  711.825  422.113  711.825
 tddfpt_print_nto_analysis            2  7.0    0.010    0.059  697.559  697.993
 copy_fm_to_dbcsr                  1880 10.6    0.005    0.028  647.843  679.609
 pw_transfer                       3138 12.5    0.259    0.356  659.349  668.988
 fft_wrap_pw1pw2                   2923 13.6    0.027    0.091  658.349  667.723
 fft3d_ps                          2923 15.6   67.641   73.122  622.243  633.014
 mp_alltoall_d11v                 11505 12.8  588.950  631.677  588.950  631.677
 dbcsr_multiply_generic            1213 11.3    0.052    0.112  566.849  590.240
 cp_fm_syevd                         58  8.6    0.008    0.046  580.827  581.732
 integrate_four_center_getP         281 12.0    0.042    0.084  554.139  557.535
 tddfpt_orthonormalize_psi1_psi      16  7.9    0.008    0.042  513.048  517.004
 cp_fm_redistribute_end              58  9.6  270.710  503.260  277.125  505.797
 integrate_four_center_dist_KS      281 12.0    0.039    0.097  500.227  501.167
 cp_fm_geeig                         20  8.0    0.006    0.027  489.861  490.449
 mp_alltoall_i11v                  9364 12.5  487.961  489.060  487.961  489.060
 fft_wrap_pw1pw2_600               1782 14.6    6.631    7.804  451.659  460.638
 mp_alltoall_z22v                  2923 17.6  447.576  460.143  447.576  460.143
 cp_fm_syevd_base                    58  9.6  224.036  454.461  224.036  454.461
 cp_dbcsr_sm_fm_multiply_core       881 10.5    0.002    0.014  357.994  380.075
 tddfpt_apply_xc_analytic           140 10.0    1.143    1.807  338.482  339.706
 transfer_pw2rs_200                 141 13.0    1.600    2.194   75.740  337.329
 transfer_rs2pw_200                 144 13.9    1.349    1.919  292.834  333.018
 mp_cart_sub                       1864 12.4  302.082  303.292  302.082  303.292
 tddfpt_apply_energy_diff            14  9.0    0.001    0.013  300.128  300.206
 cp_dbcsr_plus_fm_fm_t_native       141 10.0    0.006    0.036  280.104  282.066
 mp_sum_l                          4673 11.3  269.146  279.955  269.146  279.955
 xc_pw_derive                      1065 11.8    0.026    0.065  271.512  275.392
 dbcsr_desymmetrize_deep            928 11.4    0.016    0.058  253.081  266.330
 mp_sum_dv                         4178 10.0  244.096  248.387  244.096  248.387
 cp_fm_trace_a1b1t1_aa             3880  9.0    0.008    0.058  226.961  230.960
 mp_sync                           1471 12.7  209.844  230.455  209.844  230.455
 yz_to_x                           1073 17.1    5.660    7.016  218.500  229.663
 transfer_rs2pw_30                  144 13.9    0.303    0.698  210.571  226.666
 mp_alltoall_i22                   3740 12.5  198.300  225.519  198.300  225.519
 x_to_yz                           1280 16.1    8.900   12.302  214.422  217.821
 transfer_pw2rs_30                  141 13.0    0.425    0.923  199.318  216.745
 transfer_pw2rs_10                  141 13.0    0.099    0.161  187.671  194.921
 mp_sum_dm                         1553 11.8  186.435  189.877  186.435  189.877
 tddfpt_compute_residual_vects       10  8.0    0.000    0.000  189.404  189.610
 transfer_rs2pw_10                  144 13.9    0.067    0.085  173.882  180.718
 multiply_cannon                   1213 12.3    0.071    0.104  160.531  180.492
 xc_calc_2nd_deriv_analytical       700 11.1   25.643   29.424  173.861  174.545
 -------------------------------------------------------------------------------

 The number of warnings for this run is : 1
 
 -------------------------------------------------------------------------------
  **** **** ******  **  PROGRAM ENDED AT                 2024-02-07 18:13:41.400
 ***** ** ***  *** **   PROGRAM RAN ON                               nesh-srp276
 **    ****   ******    PROGRAM RAN BY                                  suphc355
 ***** **    ** ** **   PROGRAM PROCESS ID                                645186
  **** **  *******  **  PROGRAM STOPPED IN /gxfs_work/cau/suphc355/homologes/CH2
                                           X/AE/S
