 operating system is UNIX !
 hostname is         elgar

 dscf (elgar) : TURBOMOLE V7.0( 19819 ) 16 Jun 2015 at 11:29:46
 Copyright (C) 2015 TURBOMOLE GmbH, Karlsruhe


    2024-02-13 09:24:19.623 



                             d s c f - program

                   idea & directorship : reinhart ahlrichs
                   program development : marco haeser
                                         michael baer
                           dft version : oliver treutler


                          quantum chemistry group
                          universitaet  karlsruhe
                                  germany




                          References             
                                                 
          TURBOMOLE:                             
              R. Ahlrichs, M. Baer, M. Haeser, H. Horn, and
              C. Koelmel
              Electronic structure calculations on workstation
              computers: the program system TURBOMOLE
              Chem. Phys. Lett. 162: 165 (1989)
          Density Functional:                              
              O. Treutler and R. Ahlrichs                      
              Efficient Molecular Numerical Integration Schemes
              J. Chem. Phys. 102: 346 (1995)                   
          Parallel Version:                                
              Performance of parallel TURBOMOLE for Density    
              Functional Calculations                          
              M. v. Arnim and R. Ahlrichs                      
              J. Comp. Chem. 19: 1746 (1998)                   
                                         




              +--------------------------------------------------+
              | Atomic coordinate, charge and isotop information |
              +--------------------------------------------------+

                    atomic coordinates            atom    charge  isotop
          0.00000000    0.00000000    1.60347294    c      6.000     0
          0.00000000    0.00000000   -3.59896024    c      6.000     0
          2.29878830    0.00000000    0.33655082    c      6.000     0
         -2.29878830    0.00000000    0.33655082    c      6.000     0
         -2.28322845    0.00000000   -2.28896805    c      6.000     0
          2.28322845    0.00000000   -2.28896805    c      6.000     0
          4.04004563    0.00000000    1.40275882    h      1.000     0
         -4.04004563    0.00000000    1.40275882    h      1.000     0
         -4.05541522    0.00000000   -3.31160563    h      1.000     0
          4.05541522    0.00000000   -3.31160563    h      1.000     0
          0.00000000    0.00000000   -5.64617213    h      1.000     0
          0.00000000    0.00000000    4.40465228    n      7.000     0
          2.04887035    0.00000000    5.47976761    o      8.000     0
         -2.04887035    0.00000000    5.47976761    o      8.000     0
 
       center of nuclear mass  :    0.00000000    0.00000000    1.27226729
       center of nuclear charge:    0.00000000    0.00000000    1.15067268

              +--------------------------------------------------+
              |               basis set information              |
              +--------------------------------------------------+

              we will work with the 1s 3p 5d 7f 9g ... basis set
              ...i.e. with spherical basis functions...

   type   atoms  prim   cont   basis
   ---------------------------------------------------------------------------
    c        6     46     31   def2-TZVP   [5s3p2d1f|11s6p2d1f]
    h        5      8      6   def2-TZVP   [3s1p|5s1p]
    n        1     46     31   def2-TZVP   [5s3p2d1f|11s6p2d1f]
    o        2     46     31   def2-TZVP   [5s3p2d1f|11s6p2d1f]
   ---------------------------------------------------------------------------
   total:   14    454    309
   ---------------------------------------------------------------------------

   total number of primitive shells          :   66
   total number of contracted shells         :  119
   total number of cartesian basis functions :  354
   total number of SCF-basis functions       :  309


 integral neglect threshold       :  0.94E-12
 integral storage threshold THIZE :  0.10E-04
 integral storage threshold THIME :         5


 DENSITY CONVERGENCE CHECK SWITCHED ON !
 SCF CONVERGENCE IF RMS(delta[D]) <     0.1000000000E-06


 symmetry group of the molecule :   c2v

 the group has the following generators :
   c2(z)
   mirror plane sigma(xz)

    4 symmetry operations found

 there are 4 real representations :   a1   a2   b1   b2  

 maximum number of shells which are related by symmetry :  2


    mo occupation :
   irrep   mo's   occupied
    a1     119       16
    a2      41        2
    b1      95       11
    b2      54        3
 
 number of basis functions   :          309
 number of occupied orbitals :           32
 
  
           ------------------
           density functional
           ------------------
 PBE0 hybrid functional
 exchange:    3/4 (LDA+PBE) + 1/4 HF
 correlation: LDA (PW) + PBE
 spherical integration : Lebedev's spherical grid
 spherical gridsize    :           6
    i.e. gridpoints    :         974
 value for diffuse not defined
 radial integration    : Chebyshev 2nd kind (scaling 3)
 radial gridsize       :          10
 integration cells     :           9
 partition function    : becke
 partition sharpness   :           3
  

          ------------------------
          nuclear repulsion energy  :   412.540315295    
          ------------------------

 
          -----------------
          -S,T+V- integrals
          -----------------

 1e-integrals will be neglected if expon. factor < 0.944057E-13
 
   Difference densities algorithm switched on.
   The maximal number of linear combinations of
   difference densities is          20 .

 automatic virtual orbital shift switched on 
      shift if e(lumo)-e(homo) < 0.10000000    


 DIIS switched on: error vector is FDS-SDF
 Max. Iterations for DIIS is     :   4
 DIIS matrix (see manual) 
    Scaling factor of diagonals  :  1.200
    threshold for scaling factor :  0.000

 scf convergence criterion : increment of total energy < .1000000D-07
                  and increment of one-electron energy < .1000000D-04


 <geterg> : there is no data group $energy 

  MOs are in ASCII format !


 reading orbital data $scfmo  from file mos . 

 orbital characterization : expanded
 
 mo provided and orthogonalized by Cholesky decomposition

 DSCF restart information will be dumped onto file mos

          Overall gridpoints after grid construction =        123467
 
                                              current damping :  0.600
 ITERATION  ENERGY          1e-ENERGY        2e-ENERGY     RMS[dD(SAO)]   TOL
   1  -434.62794489793    -1395.1006560     547.93239576    0.000D+00 0.942D-12
                            Exc =   -43.327039560201     N = 63.999999780    
          max. resid. norm for Fia-block=  4.775D-01 for orbital      7b1        
          max. resid. fock norm         =  1.542D+01 for orbital     77a1        
          Delta Eig. =   723.1533226214 eV 
 
                                              current damping :  0.550
 ITERATION  ENERGY          1e-ENERGY        2e-ENERGY     RMS[dD(SAO)]   TOL
   2  -436.20317942920    -1406.6268895     557.88339480    0.330D-01 0.760D-12
                            Exc =   -43.733674977442     N = 63.999999797    
          Norm of current diis error:  2.2494    
          max. resid. norm for Fia-block=  1.567D-01 for orbital      7a1        
          max. resid. fock norm         =  3.336D-01 for orbital     24b2        
          Delta Eig. =   272.4641243367 eV 
 
                                              current damping :  0.450
 ITERATION  ENERGY          1e-ENERGY        2e-ENERGY     RMS[dD(SAO)]   TOL
   3  -436.37059332842    -1409.0319684     560.12105981    0.170D-01 0.504D-12
                            Exc =   -43.960603934364     N = 63.999999821    
          Norm of current diis error:  1.0581    
          max. resid. norm for Fia-block=  5.736D-02 for orbital      9b1        
          max. resid. fock norm         =  7.397D-02 for orbital     37a1        
          Delta Eig. =   105.9197925412 eV 
 
                                              current damping :  0.350
 ITERATION  ENERGY          1e-ENERGY        2e-ENERGY     RMS[dD(SAO)]   TOL
   4  -436.42148947978    -1409.5871722     560.62536741    0.785D-02 0.430D-12
                            Exc =   -43.952316609504     N = 63.999999827    
          Norm of current diis error: 0.41173    
          max. resid. norm for Fia-block=  2.874D-02 for orbital      7a1        
          max. resid. fock norm         =  3.836D-02 for orbital     28b2        
          Delta Eig. =    34.0848787854 eV 
 
                                              current damping :  0.250
 ITERATION  ENERGY          1e-ENERGY        2e-ENERGY     RMS[dD(SAO)]   TOL
   5  -436.42936152838    -1410.1918123     561.22213548    0.284D-02 0.394D-12
                            Exc =   -44.010402588609     N = 63.999999832    
          Norm of current diis error: 0.13647    
          max. resid. norm for Fia-block=  6.733D-03 for orbital      3b2        
          max. resid. fock norm         =  1.134D-02 for orbital      9a1        
 mo-orthogonalization: Cholesky decomposition
          Delta Eig. =     9.6927281865 eV 
 
                                              current damping :  0.100
 ITERATION  ENERGY          1e-ENERGY        2e-ENERGY     RMS[dD(SAO)]   TOL
   6  -436.43035220020    -1410.2732835     561.30261605    0.995D-03 0.374D-12
                            Exc =   -44.010933307541     N = 63.999999833    
          Norm of current diis error: 0.50891E-01
          max. resid. norm for Fia-block=  2.900D-03 for orbital      3b2        
          max. resid. fock norm         =  6.237D-03 for orbital    116a1        
          Delta Eig. =     2.3454262092 eV 
 
                                              current damping :  0.150
 ITERATION  ENERGY          1e-ENERGY        2e-ENERGY     RMS[dD(SAO)]   TOL
   7  -436.43044831548    -1410.2244009     561.25363727    0.405D-03 0.365D-12
                            Exc =   -44.009701569163     N = 63.999999833    
          Norm of current diis error: 0.35062E-01
          max. resid. norm for Fia-block=  1.189D-03 for orbital      3b2        
          max. resid. fock norm         =  2.914D-03 for orbital    115a1        
          Delta Eig. =     0.1589623391 eV 
 
                                              current damping :  0.200
 ITERATION  ENERGY          1e-ENERGY        2e-ENERGY     RMS[dD(SAO)]   TOL
   8  -436.43050866685    -1410.2656391     561.29481509    0.115D-03 0.360D-12
                            Exc =   -44.011546017188     N = 63.999999833    
          Norm of current diis error: 0.46345E-02
          max. resid. norm for Fia-block=  3.288D-04 for orbital     16a1        
          max. resid. fock norm         =  4.719D-04 for orbital     12a1        
          Delta Eig. =     0.0285945540 eV 
 
                                              current damping :  0.100
 ITERATION  ENERGY          1e-ENERGY        2e-ENERGY     RMS[dD(SAO)]   TOL
   9  -436.43050931561    -1410.2661525     561.29532790    0.269D-04 0.355D-12
                            Exc =   -44.012161865392     N = 63.999999833    
          Norm of current diis error: 0.30786E-02
          max. resid. norm for Fia-block=  1.643D-04 for orbital      1a2        
          max. resid. fock norm         =  2.298D-04 for orbital     63b1        
          Delta Eig. =     0.0208662893 eV 
 
                                              current damping :  0.100
 ITERATION  ENERGY          1e-ENERGY        2e-ENERGY     RMS[dD(SAO)]   TOL
  10  -436.43050973662    -1410.2669584     561.29613333    0.156D-04 0.351D-12
                            Exc =   -44.011733775191     N = 63.999999833    
          Norm of current diis error: 0.19227E-02
          max. resid. norm for Fia-block=  8.868D-05 for orbital      1b2        
          max. resid. fock norm         =  1.000D-04 for orbital      7b1        
 mo-orthogonalization: Cholesky decomposition
          Delta Eig. =     0.0075888370 eV 
 
                                              current damping :  0.150
 ITERATION  ENERGY          1e-ENERGY        2e-ENERGY     RMS[dD(SAO)]   TOL
  11  -436.43050989775    -1410.2651588     561.29433361    0.469D-05 0.348D-12
                            Exc =   -44.011799304313     N = 63.999999833    
          Norm of current diis error: 0.46486E-03
          max. resid. norm for Fia-block=  2.277D-05 for orbital      3b2        
          max. resid. fock norm         =  6.088D-05 for orbital    116a1        
          Delta Eig. =     0.0023564161 eV 
 
                                              current damping :  0.200
 ITERATION  ENERGY          1e-ENERGY        2e-ENERGY     RMS[dD(SAO)]   TOL
  12  -436.43050990458    -1410.2661586     561.29533344    0.274D-05 0.344D-12
                            Exc =   -44.011835946648     N = 63.999999833    
          Norm of current diis error: 0.31405E-03
          max. resid. norm for Fia-block=  1.407D-05 for orbital      3b2        
          max. resid. fock norm         =  3.440D-05 for orbital    116a1        
          Delta Eig. =     0.0010430758 eV 
 
                                              current damping :  0.250
 ITERATION  ENERGY          1e-ENERGY        2e-ENERGY     RMS[dD(SAO)]   TOL
  13  -436.43050990947    -1410.2658305     561.29500527    0.123D-05 0.339D-12
                            Exc =   -44.011825188191     N = 63.999999833    
          Norm of current diis error: 0.84708E-04
          max. resid. norm for Fia-block=  3.062D-06 for orbital      3b2        
          max. resid. fock norm         =  7.640D-06 for orbital    115a1        
          Delta Eig. =     0.0002694617 eV 
 
                                              current damping :  0.100
 ITERATION  ENERGY          1e-ENERGY        2e-ENERGY     RMS[dD(SAO)]   TOL
  14  -436.43050990982    -1410.2657869     561.29496165    0.275D-06 0.333D-12
                            Exc =   -44.011822755885     N = 63.999999833    
          Norm of current diis error: 0.20325E-04
          max. resid. norm for Fia-block=  1.685D-06 for orbital     16a1        
          max. resid. fock norm         =  2.296D-06 for orbital    115a1        
          Delta Eig. =     0.0001489989 eV 

 ENERGY & DENSITY CONVERGED !

 
                                              current damping :  0.150
 ITERATION  ENERGY          1e-ENERGY        2e-ENERGY     RMS[dD(SAO)]   TOL
  15  -436.43050990982    -1410.2658020     561.29497680    0.209D-06 0.324D-12
                            Exc =   -44.011826460589     N = 63.999999833    
          max. resid. norm for Fia-block=  2.033D-06 for orbital      1b2        
          max. resid. fock norm         =  3.028D-06 for orbital    115a1        

 convergence criteria satisfied after 15 iterations


                  ------------------------------------------ 
                 |  total energy      =   -436.43050990982  |
                  ------------------------------------------ 
                 :  kinetic energy    =    434.43683666491  :
                 :  potential energy  =   -870.86734657473  :
                 :  virial theorem    =      1.99543186556  :
                 :  wavefunction norm =      1.00000000000  :
                  .......................................... 


 <geterg> : there is no data group $energy 


 <skperg> : $end is missing 


 orbitals $scfmo  will be written to file mos

    irrep                 12a1        13a1        14a1        15a1        16a1  
 eigenvalues H         -0.59014    -0.53407    -0.48675    -0.40779    -0.33174
            eV         -16.0588    -14.5330    -13.2451    -11.0967     -9.0272
 occupation              2.0000      2.0000      2.0000      2.0000      2.0000 

    irrep                 17a1        18a1        19a1        20a1        21a1  
 eigenvalues H          0.04213     0.08462     0.10232     0.12103     0.16161
            eV           1.1465      2.3025      2.7842      3.2935      4.3977

    irrep                  1a2         2a2         3a2         4a2         5a2  
 eigenvalues H         -0.33444    -0.29849    -0.03630     0.24043     0.31978
            eV          -9.1007     -8.1225     -0.9877      6.5426      8.7018
 occupation              2.0000      2.0000 

    irrep                  6a2         7a2         8a2         9a2        10a2  
 eigenvalues H          0.51514     0.63271     0.71894     0.79885     0.99321
            eV          14.0179     17.2171     19.5635     21.7379     27.0269

    irrep                  7b1         8b1         9b1        10b1        11b1  
 eigenvalues H         -0.53997    -0.49533    -0.46814    -0.38879    -0.31691
            eV         -14.6934    -13.4788    -12.7389    -10.5796     -8.6235
 occupation              2.0000      2.0000      2.0000      2.0000      2.0000 

    irrep                 12b1        13b1        14b1        15b1        16b1  
 eigenvalues H          0.07725     0.11918     0.19650     0.21874     0.23280
            eV           2.1022      3.2431      5.3472      5.9522      6.3349

    irrep                  1b2         2b2         3b2         4b2         5b2  
 eigenvalues H         -0.55934    -0.41680    -0.30293    -0.09386    -0.00614
            eV         -15.2205    -11.3418     -8.2431     -2.5542     -0.1671
 occupation              2.0000      2.0000      2.0000 

    irrep                  6b2         7b2         8b2         9b2        10b2  
 eigenvalues H          0.13284     0.19778     0.24530     0.32453     0.38317
            eV           3.6147      5.3820      6.6751      8.8310     10.4267
 
 
 
 
 ==============================================================================
                           electrostatic moments
 ==============================================================================

 reference point for electrostatic moments:    0.00000   0.00000   0.00000

 
              nuc           elec       ->  total
 ------------------------------------------------------------------------------
                          charge      
 ------------------------------------------------------------------------------
          64.000000     -64.000000      -0.000000
 
 ------------------------------------------------------------------------------
                       dipole moment  
 ------------------------------------------------------------------------------
   x       0.000000      -0.000000      -0.000000
   y       0.000000       0.000000       0.000000
   z      73.643051     -75.472740      -1.829689
 
   | dipole moment | =     1.8297 a.u. =     4.6506 debye 
 
 ------------------------------------------------------------------------------
                     quadrupole moment
 ------------------------------------------------------------------------------
  xx     258.673356    -293.817802     -35.144446
  yy       0.000000     -39.256070     -39.256070
  zz     831.374104    -876.119235     -44.745131
  xy       0.000000       0.000000       0.000000
  xz       0.000000      -0.000000      -0.000000
  yz       0.000000       0.000000       0.000000
 
     1/3  trace=     -39.715216
     anisotropy=       8.342913
 
 ==============================================================================
 
 


    ------------------------------------------------------------------------
         total  cpu-time :  3 minutes and 30 seconds
         total wall-time :  3 minutes and 31 seconds
    ------------------------------------------------------------------------


   ****  dscf : all done  ****


    2024-02-13 09:27:50.868 

