 operating system is UNIX !
 hostname is         elgar

 escf (elgar) : TURBOMOLE V7.0( 19819 ) 16 Jun 2015 at 11:29:46
 Copyright (C) 2015 TURBOMOLE GmbH, Karlsruhe


    2024-02-13 09:29:48.445 




                                e s c f

                       quantum chemistry group
                       university of karlsruhe
                               germany


          integral direct evaluation of 

                    * excitation energies and transition moments 
                    * dynamic response properties 
                    * stabilities



          references (see also programs dscf and ridft) 

          implementation and benchmarks (review) 
          F. Furche and D. Rappoport,  
          "Density functional methods for excited states: 
          equilibrium structure and electronic spectra",
          ch. III of "Computational Photochemistry", ed. by 
          M. Olivucci, vol. 16 of "Theoretical and Computational 
          Chemistry", Elsevier, Amsterdam, 2005.

          two-component TDDFT with spin-orbit coupling 
          M. Kuehn and F. Weigend, 
          J. Chem. Theory Comput. 9 (2013), 5341.

          GW quasi particle energies
          M. J. van Setten, F. Weigend, and F. Evers,
          J. Chem. Theory Comput. 9 (2013), 232.

          Current-density dependent meta-GGA Linear Response
          J. E. Bates and F. Furche, 
          J. Chem. Phys. 137 (2012), 164105.

          spin-flip method 
          M. Kuehn and F. Weigend, 
          Chem. Phys. Chem. 12 (2011), 3331.

          RI-J method 
          R. Bauernschmitt, M. Haeser, O. Treutler, and R. Ahlrichs,
          Chem. Phys. Lett. 264 (1997), 573.

          density functional implementation               
          R. Bauernschmitt and R. Ahlrichs,
          Chem. Phys. Lett. 256 (1996), 454.
          R. Bauernschmitt and R. Ahlrichs,
          J. Chem. Phys. 104 (1996), 9047.

          UHF extension (RPA and CIS)
          C. Ochsenfeld, J. Gauss, and R. Ahlrichs, 
          J. Chem. Phys. 103 (1995), 7401.

          integral direct algorithm                 
          H. Weiss, R. Ahlrichs, and M. Haeser, 
          J. Chem. Phys. 99 (1993), 1262.
                                     




              +--------------------------------------------------+
              | Atomic coordinate, charge and isotop information |
              +--------------------------------------------------+

                    atomic coordinates            atom    charge  isotop
          0.00000000    0.00000000    1.60347294    c      6.000     0
          0.00000000    0.00000000   -3.59896024    c      6.000     0
          2.29878830    0.00000000    0.33655082    c      6.000     0
         -2.29878830    0.00000000    0.33655082    c      6.000     0
         -2.28322845    0.00000000   -2.28896805    c      6.000     0
          2.28322845    0.00000000   -2.28896805    c      6.000     0
          4.04004563    0.00000000    1.40275882    h      1.000     0
         -4.04004563    0.00000000    1.40275882    h      1.000     0
         -4.05541522    0.00000000   -3.31160563    h      1.000     0
          4.05541522    0.00000000   -3.31160563    h      1.000     0
          0.00000000    0.00000000   -5.64617213    h      1.000     0
          0.00000000    0.00000000    4.40465228    n      7.000     0
          2.04887035    0.00000000    5.47976761    o      8.000     0
         -2.04887035    0.00000000    5.47976761    o      8.000     0
 
       center of nuclear mass  :    0.00000000    0.00000000    1.27226729
       center of nuclear charge:    0.00000000    0.00000000    1.15067268

              +--------------------------------------------------+
              |               basis set information              |
              +--------------------------------------------------+

              we will work with the 1s 3p 5d 7f 9g ... basis set
              ...i.e. with spherical basis functions...

   type   atoms  prim   cont   basis
   ---------------------------------------------------------------------------
    c        6     46     31   def2-TZVP   [5s3p2d1f|11s6p2d1f]
    h        5      8      6   def2-TZVP   [3s1p|5s1p]
    n        1     46     31   def2-TZVP   [5s3p2d1f|11s6p2d1f]
    o        2     46     31   def2-TZVP   [5s3p2d1f|11s6p2d1f]
   ---------------------------------------------------------------------------
   total:   14    454    309
   ---------------------------------------------------------------------------

   total number of primitive shells          :   66
   total number of contracted shells         :  119
   total number of cartesian basis functions :  354
   total number of SCF-basis functions       :  309


 residuum convergence criterium   :  0.10E-04


 integral neglect threshold       :  0.94E-11
 integral storage threshold THIZE :  0.10E-04
 integral storage threshold THIME :         5

 CI SINGLES TRIPLET-CALCULATION (TAMM-DANCOFF-APPROXIMATION)
 
             FOUND DFT-FLAG !
 

 symmetry group of the molecule :   c2v

 the group has the following generators :
   c2(z)
   mirror plane sigma(xz)

    4 symmetry operations found

 there are 4 real representations :   a1   a2   b1   b2  

 maximum number of shells which are related by symmetry :  2

 IRREPs of excited states :   a1   a2   b1   b2  
 

 determining totally symmetric integral contributions 
    - equivalent to irreducible tensor elements - 
 which can be formed within each triple of representations :

             representation triple      contributions

              a1    a1    a1              1
              a1    a2    a2              1
              a1    b1    b1              1
              a1    b2    b2              1
              a2    a1    a2              1
              a2    a2    a1              1
              a2    b1    b2              1
              a2    b2    b1              1
              b1    a1    b1              1
              b1    a2    b2              1
              b1    b1    a1              1
              b1    b2    a2              1
              b2    a1    b2              1
              b2    a2    b1              1
              b2    b1    a2              1
              b2    b2    a1              1

    mo occupation :
   irrep   mo's   occupied
    a1     119       16
    a2      41        2
    b1      95       11
    b2      54        3
 
 number of basis functions   :          309
 number of occupied orbitals :           32
 
  
           ------------------
           density functional
           ------------------
 PBE0 hybrid functional
 exchange:    3/4 (LDA+PBE) + 1/4 HF
 correlation: LDA (PW) + PBE
 spherical integration : Lebedev's spherical grid
 spherical gridsize    :           6
    i.e. gridpoints    :         974
 value for diffuse not defined
 radial integration    : Chebyshev 2nd kind (scaling 3)
 radial gridsize       :          10
 integration cells     :           9
 partition function    : becke
 partition sharpness   :           3
  

 biggest AO integral is expected to be     7.998976882
  MOs are in ASCII format !


 reading orbital data $scfmo  from file mos . 

 orbital characterization : scfconv=8
 
 preparing numerical integration ....
          Overall gridpoints after grid construction =        123467

 Calculating ground state density on molecular grid

 Integral of ground state density: N =   63.99999983305558    


 all orbitals will be included in the transformation

 number of non-frozen orbitals          :   309
 number of non-frozen occupied orbitals :    32



 dimension of super-tensorspace: 1

          IRREP   tensor space dimension   number of roots

           a1             2803                  10
           a2             1643                  10
           b1             2696                  10
           b2             1722                  10

 maximum number of Davidson iterations set to   25


 machine precision: 2.22D-16


 logfile cist_a1   will be constructed

 logfile cist_a2   will be constructed

 logfile cist_b1   will be constructed

 logfile cist_b2   will be constructed


                       Block Davidson iteration


 total number of roots to be determined:  40


 maximum core memory set to   500 MB,
 corresponding to      515 vectors in CAO basis


 maximum number of simultaneously treated vectors (including degeneracy):       72


 Iteration IRREP Converged      Max. Euclidean
                 roots          residual norm

    1       a1       0        7.145257828392013D-02
            a2       0        6.107329613913194D-02
            b1       0        7.407117412282575D-02
            b2       0        5.799963854068705D-02
 
    2       a1       0        1.142976806492277D-02
            a2       0        9.741923436284713D-03
            b1       0        2.184352723059731D-02
            b2       0        9.808413333195336D-03
 
    3       a1       0        1.980377247341875D-03
            a2       0        2.290223156395382D-03
            b1       0        4.906796214254869D-03
            b2       0        3.337646434552667D-03
 
    4       a1       0        1.829126314069082D-03
            a2       0        4.755712637286682D-04
            b1       0        8.706780567670268D-04
            b2       0        5.489810754325010D-04
 
    5       a1       5        6.193756841173656D-04
            a2       6        6.738583195261981D-05
            b1       5        1.302356889930131D-04
            b2       6        6.694128720497514D-05
 
    6       a1       9        9.179151346989510D-05
            a2      10        9.506752586586539D-06
            b1       9        1.374327816914716D-05
            b2      10        9.267522171735633D-06
 
    7       a1       9        1.674087159959420D-05
            a2      10        9.506752586586539D-06
            b1      10        4.565507849755731D-06
            b2      10        9.267522171735633D-06
 
    8       a1      10        8.060909626551629D-06
            a2      10        9.506752586586539D-06
            b1      10        4.565507849755731D-06
            b2      10        9.267522171735633D-06
 

 converged!

 Eigenpairs written on logfile cist_a1  

 Eigenpairs written on logfile cist_a2  

 Eigenpairs written on logfile cist_b1  

 Eigenpairs written on logfile cist_b2  



 IRREP   Vector     Eigenvalue           Euclidean residual norm

  a1        1    1.346081781655201D-01    3.300079262137140D-06
            2    1.670706351407681D-01    6.062430696518261D-06
            3    2.154759446007724D-01    5.355153650618683D-06
            4    2.572024747296002D-01    4.758612213399995D-06
            5    2.608792976552749D-01    1.372018205004423D-06
            6    3.159465275404223D-01    1.747397152404613D-06
            7    3.318351122360562D-01    2.301906901269499D-06
            8    3.450788651714494D-01    2.544388206863395D-06
            9    3.625615423589400D-01    8.060909626551629D-06
           10    3.731927729968373D-01    2.936008538738494D-06

  a2        1    1.241974129619853D-01    1.744567933768889D-06
            2    2.385893359253481D-01    2.329617029659226D-06
            3    2.520392133540378D-01    2.883269168892519D-06
            4    2.576075444101451D-01    2.237592440645708D-06
            5    2.889328018480259D-01    4.032984563600632D-06
            6    2.972147774207979D-01    9.506752586586539D-06
            7    3.118107823560427D-01    3.207332862417518D-06
            8    3.233500169705751D-01    3.286659940939072D-06
            9    3.297868120950730D-01    6.580632257459303D-06
           10    3.348610279785723D-01    7.597742760662151D-06

  b1        1    1.211394940058620D-01    2.024685483733373D-06
            2    1.463293574708261D-01    2.018656777002779D-06
            3    1.909292286458796D-01    2.543697158510758D-06
            4    2.282034452806803D-01    2.658178619630733D-06
            5    2.746547520282073D-01    1.629446988321231D-06
            6    2.856799740533957D-01    9.418381856124293D-07
            7    3.210417381712315D-01    1.367162344849108D-06
            8    3.593992810237439D-01    4.565507849755731D-06
            9    3.625520633838151D-01    3.724760621279502D-06
           10    3.676711916644289D-01    2.109124027449469D-06

  b2        1    1.421600354225230D-01    2.477063527075740D-06
            2    2.411340544806230D-01    3.989993867867993D-06
            3    2.547287935670177D-01    6.065704106369180D-06
            4    2.675567705737227D-01    4.580919477025103D-06
            5    2.764704319410404D-01    7.709922483486536D-06
            6    2.936378197590458D-01    9.267522171735633D-06
            7    3.247555693235856D-01    2.447194797313561D-06
            8    3.309969342262893D-01    6.462403127670801D-06
            9    3.370011597069184D-01    5.314710596490853D-06
           10    3.383036833604458D-01    5.550837874765474D-06
 




                    Selection rules for point group c2v 


 Subduction with respect to c2v :

    Polar vector representation: a1, b1, b2                  

    Axial vector representation: a2, b1, b2                  

    Symmetric second rank tensor representation: a1, a2, b1, b2              




                            Ground state


 Total energy:                           -436.4305099098000    

 Charge:

               elec          nuc         total

           -64.000000    64.000000     0.000000


 Electric dipole moment:

               elec          nuc         total   

    x        0.000000     0.000000     0.000000    Norm:              1.829689
    y        0.000000     0.000000     0.000000
    z      -75.472740    73.643051    -1.829689    Norm / debye:      4.650641


 Electric quadrupole moment:

               elec          nuc         total   

   xx     -293.817802   258.673356   -35.144446
   yy      -39.256070     0.000000   -39.256070    1/3*trace:       -39.715216
   zz     -876.119235   831.374104   -44.745131
   xy        0.000000     0.000000     0.000000
   xz        0.000000     0.000000     0.000000    Anisotropy:        8.342913
   yz        0.000000     0.000000     0.000000



 ==============================================================================

                              I R R E P   a1  

 ==============================================================================


 Excitation is electric dipole allowed

 Excitation is magnetic dipole forbidden

 Excitation is electric quadrupole allowed




                         1 triplet a1 excitation


 Total energy:                           -436.2959017316344    

 Excitation energy:                      0.1346081781655201    

 Excitation energy / eV:                  3.662876463783910    

 Excitation energy / nm:                  338.4887402901577    

 Excitation energy / cm^(-1):             29543.08019207732    


 Oscillator strength:

    velocity representation:             0.3529889126441363    

    length representation:               0.2817794176225842    

    mixed representation:                0.3153807385242383    


 Rotatory strength:

    velocity representation:              0.000000000000000    

    velocity rep. / 10^(-40)erg*cm^3:     0.000000000000000    

    length representation:                0.000000000000000    

    length rep. / 10^(-40)erg*cm^3:       0.000000000000000    


 Dominant contributions:

    occ. orbital  energy / eV   virt. orbital  energy / eV   |coeff.|^2*100
       3 b2         -8.24           4 b2         -2.55           82.6
       2 a2         -8.12           3 a2         -0.99            8.9
 

 S^2 expectation value:                     2.00000000


 Change of electron number:

             0.000000


 Electric transition dipole moment (velocity rep.):

    x        0.000000        Norm:                  1.983309
    y        0.000000
    z       -1.983309        Norm / debye:          5.041107


 Electric transition dipole moment (length rep.):

    x        0.000000        Norm:                  1.772003
    y        0.000000
    z       -1.772003        Norm / debye:          4.504017


 Magnetic transition dipole moment / i:

    x        0.000000        Norm:                  0.000000
    y        0.000000
    z        0.000000        Norm / Bohr mag.:      0.000000


 Electric quadrupole transition moment:

   xx       -0.422393
   yy        0.250382        1/3*trace:            -0.993721
   zz       -2.809152
   xy        0.000000
   xz        0.000000        Anisotropy:            2.784780
   yz        0.000000




                         2 triplet a1 excitation


 Total energy:                           -436.2634392746592    

 Excitation energy:                      0.1670706351407681    

 Excitation energy / eV:                  4.546225241188965    

 Excitation energy / nm:                  272.7190964564768    

 Excitation energy / cm^(-1):             36667.76594833453    


 Oscillator strength:

    velocity representation:             0.9959566406781547    

    length representation:               0.8054781955287723    

    mixed representation:                0.8956681069226132    


 Rotatory strength:

    velocity representation:              0.000000000000000    

    velocity rep. / 10^(-40)erg*cm^3:     0.000000000000000    

    length representation:                0.000000000000000    

    length rep. / 10^(-40)erg*cm^3:       0.000000000000000    


 Dominant contributions:

    occ. orbital  energy / eV   virt. orbital  energy / eV   |coeff.|^2*100
       2 a2         -8.12           3 a2         -0.99           86.3
       3 b2         -8.24           4 b2         -2.55           11.4
 

 S^2 expectation value:                     2.00000000


 Change of electron number:

            -0.000000


 Electric transition dipole moment (velocity rep.):

    x        0.000000        Norm:                  2.990307
    y        0.000000
    z        2.990307        Norm / debye:          7.600660


 Electric transition dipole moment (length rep.):

    x        0.000000        Norm:                  2.689196
    y        0.000000
    z        2.689196        Norm / debye:          6.835306


 Magnetic transition dipole moment / i:

    x        0.000000        Norm:                  0.000000
    y        0.000000
    z        0.000000        Norm / Bohr mag.:      0.000000


 Electric quadrupole transition moment:

   xx        0.167678
   yy       -0.117993        1/3*trace:            -0.701958
   zz       -2.155560
   xy        0.000000
   xz        0.000000        Anisotropy:            2.194394
   yz        0.000000




                         3 triplet a1 excitation


 Total energy:                           -436.2150339651992    

 Excitation energy:                      0.2154759446007724    

 Excitation energy / eV:                  5.863401293636589    

 Excitation energy / nm:                  211.4544746255480    

 Excitation energy / cm^(-1):             47291.50336598817    


 Oscillator strength:

    velocity representation:             0.3288127146367729E-01

    length representation:               0.2254119930944171E-01

    mixed representation:                0.2722468169897690E-01


 Rotatory strength:

    velocity representation:              0.000000000000000    

    velocity rep. / 10^(-40)erg*cm^3:     0.000000000000000    

    length representation:                0.000000000000000    

    length rep. / 10^(-40)erg*cm^3:       0.000000000000000    


 Dominant contributions:

    occ. orbital  energy / eV   virt. orbital  energy / eV   |coeff.|^2*100
       3 b2         -8.24           5 b2         -0.17           84.8
       2 b2        -11.34           4 b2         -2.55            8.0
 

 S^2 expectation value:                     2.00000000


 Change of electron number:

             0.000000


 Electric transition dipole moment (velocity rep.):

    x        0.000000        Norm:                  0.478432
    y        0.000000
    z        0.478432        Norm / debye:          1.216063


 Electric transition dipole moment (length rep.):

    x        0.000000        Norm:                  0.396127
    y        0.000000
    z        0.396127        Norm / debye:          1.006863


 Magnetic transition dipole moment / i:

    x        0.000000        Norm:                  0.000000
    y        0.000000
    z        0.000000        Norm / Bohr mag.:      0.000000


 Electric quadrupole transition moment:

   xx        0.657048
   yy        0.108971        1/3*trace:            -3.178601
   zz      -10.301823
   xy        0.000000
   xz        0.000000        Anisotropy:           10.695370
   yz        0.000000




                         4 triplet a1 excitation


 Total energy:                           -436.1733074350704    

 Excitation energy:                      0.2572024747296002    

 Excitation energy / eV:                  6.998838435771566    

 Excitation energy / nm:                  177.1497444101238    

 Excitation energy / cm^(-1):             56449.41815640510    


 Oscillator strength:

    velocity representation:             0.2050421042410235E-01

    length representation:               0.1824016941040978E-01

    mixed representation:                0.1933908663205988E-01


 Rotatory strength:

    velocity representation:              0.000000000000000    

    velocity rep. / 10^(-40)erg*cm^3:     0.000000000000000    

    length representation:                0.000000000000000    

    length rep. / 10^(-40)erg*cm^3:       0.000000000000000    


 Dominant contributions:

    occ. orbital  energy / eV   virt. orbital  energy / eV   |coeff.|^2*100
       2 b2        -11.34           4 b2         -2.55           74.7
       3 b2         -8.24           5 b2         -0.17            6.4
       2 b2        -11.34           5 b2         -0.17            6.3
       1 a2         -9.10           3 a2         -0.99            5.2
 

 S^2 expectation value:                     2.00000000


 Change of electron number:

            -0.000000


 Electric transition dipole moment (velocity rep.):

    x        0.000000        Norm:                  0.345804
    y        0.000000
    z       -0.345804        Norm / debye:          0.878952


 Electric transition dipole moment (length rep.):

    x        0.000000        Norm:                  0.326154
    y        0.000000
    z       -0.326154        Norm / debye:          0.829007


 Magnetic transition dipole moment / i:

    x        0.000000        Norm:                  0.000000
    y        0.000000
    z        0.000000        Norm / Bohr mag.:      0.000000


 Electric quadrupole transition moment:

   xx        3.105429
   yy        0.193945        1/3*trace:            -0.395330
   zz       -4.485363
   xy        0.000000
   xz        0.000000        Anisotropy:            6.632978
   yz        0.000000




                         5 triplet a1 excitation


 Total energy:                           -436.1696306121447    

 Excitation energy:                      0.2608792976552749    

 Excitation energy / eV:                  7.098889921049038    

 Excitation energy / nm:                  174.6530026319193    

 Excitation energy / cm^(-1):             57256.38751016684    


 Oscillator strength:

    velocity representation:             0.3021862214617007E-02

    length representation:               0.3851488938605432E-02

    mixed representation:                0.3411549339169392E-02


 Rotatory strength:

    velocity representation:              0.000000000000000    

    velocity rep. / 10^(-40)erg*cm^3:     0.000000000000000    

    length representation:                0.000000000000000    

    length rep. / 10^(-40)erg*cm^3:       0.000000000000000    


 Dominant contributions:

    occ. orbital  energy / eV   virt. orbital  energy / eV   |coeff.|^2*100
       1 a2         -9.10           3 a2         -0.99           93.7
 

 S^2 expectation value:                     2.00000000


 Change of electron number:

             0.000000


 Electric transition dipole moment (velocity rep.):

    x        0.000000        Norm:                  0.131814
    y        0.000000
    z       -0.131814        Norm / debye:          0.335042


 Electric transition dipole moment (length rep.):

    x        0.000000        Norm:                  0.148813
    y        0.000000
    z       -0.148813        Norm / debye:          0.378247


 Magnetic transition dipole moment / i:

    x        0.000000        Norm:                  0.000000
    y        0.000000
    z        0.000000        Norm / Bohr mag.:      0.000000


 Electric quadrupole transition moment:

   xx       -0.738828
   yy        0.201999        1/3*trace:            -0.466007
   zz       -0.861193
   xy        0.000000
   xz        0.000000        Anisotropy:            1.007597
   yz        0.000000




                         6 triplet a1 excitation


 Total energy:                           -436.1145633822596    

 Excitation energy:                      0.3159465275404223    

 Excitation energy / eV:                  8.597346129438247    

 Excitation energy / nm:                  144.2122279826943    

 Excitation energy / cm^(-1):             69342.24745288157    


 Oscillator strength:

    velocity representation:             0.9398122326733307E-01

    length representation:               0.6822518222790579E-01

    mixed representation:                0.8007425356139948E-01


 Rotatory strength:

    velocity representation:              0.000000000000000    

    velocity rep. / 10^(-40)erg*cm^3:     0.000000000000000    

    length representation:                0.000000000000000    

    length rep. / 10^(-40)erg*cm^3:       0.000000000000000    


 Dominant contributions:

    occ. orbital  energy / eV   virt. orbital  energy / eV   |coeff.|^2*100
       2 b2        -11.34           5 b2         -0.17           41.0
       1 b2        -15.22           4 b2         -2.55           29.6
       3 b2         -8.24           6 b2          3.61           18.7
       2 b2        -11.34           4 b2         -2.55            4.9
 

 S^2 expectation value:                     2.00000000


 Change of electron number:

            -0.000000


 Electric transition dipole moment (velocity rep.):

    x        0.000000        Norm:                  0.667974
    y        0.000000
    z       -0.667974        Norm / debye:          1.697833


 Electric transition dipole moment (length rep.):

    x        0.000000        Norm:                  0.569130
    y        0.000000
    z       -0.569130        Norm / debye:          1.446594


 Magnetic transition dipole moment / i:

    x        0.000000        Norm:                  0.000000
    y        0.000000
    z        0.000000        Norm / Bohr mag.:      0.000000


 Electric quadrupole transition moment:

   xx       -5.222050
   yy       -0.033884        1/3*trace:            -2.796139
   zz       -3.132484
   xy        0.000000
   xz        0.000000        Anisotropy:            4.521320
   yz        0.000000




                         7 triplet a1 excitation


 Total energy:                           -436.0986747975639    

 Excitation energy:                      0.3318351122360562    

 Excitation energy / eV:                  9.029696702171739    

 Excitation energy / nm:                  137.3072076459100    

 Excitation energy / cm^(-1):             72829.38871130148    


 Oscillator strength:

    velocity representation:             0.2364043401126704    

    length representation:               0.2035914563287261    

    mixed representation:                0.2193852863935274    


 Rotatory strength:

    velocity representation:              0.000000000000000    

    velocity rep. / 10^(-40)erg*cm^3:     0.000000000000000    

    length representation:                0.000000000000000    

    length rep. / 10^(-40)erg*cm^3:       0.000000000000000    


 Dominant contributions:

    occ. orbital  energy / eV   virt. orbital  energy / eV   |coeff.|^2*100
      16 a1         -9.03          17 a1          1.15           82.2
      16 a1         -9.03          18 a1          2.30            8.1
 

 S^2 expectation value:                     2.00000000


 Change of electron number:

             0.000000


 Electric transition dipole moment (velocity rep.):

    x        0.000000        Norm:                  1.033742
    y        0.000000
    z        1.033742        Norm / debye:          2.627530


 Electric transition dipole moment (length rep.):

    x        0.000000        Norm:                  0.959322
    y        0.000000
    z        0.959322        Norm / debye:          2.438371


 Magnetic transition dipole moment / i:

    x        0.000000        Norm:                  0.000000
    y        0.000000
    z        0.000000        Norm / Bohr mag.:      0.000000


 Electric quadrupole transition moment:

   xx       -1.866739
   yy       -0.052872        1/3*trace:             0.979254
   zz        4.857372
   xy        0.000000
   xz        0.000000        Anisotropy:            6.025541
   yz        0.000000




                         8 triplet a1 excitation


 Total energy:                           -436.0854310446285    

 Excitation energy:                      0.3450788651714494    

 Excitation energy / eV:                  9.390077710074326    

 Excitation energy / nm:                  132.0375057955585    

 Excitation energy / cm^(-1):             75736.05649587896    


 Oscillator strength:

    velocity representation:             0.3471215756942641E-01

    length representation:               0.2094574730907088E-01

    mixed representation:                0.2696427416048608E-01


 Rotatory strength:

    velocity representation:              0.000000000000000    

    velocity rep. / 10^(-40)erg*cm^3:     0.000000000000000    

    length representation:                0.000000000000000    

    length rep. / 10^(-40)erg*cm^3:       0.000000000000000    


 Dominant contributions:

    occ. orbital  energy / eV   virt. orbital  energy / eV   |coeff.|^2*100
       1 b2        -15.22           4 b2         -2.55           54.9
       2 b2        -11.34           5 b2         -0.17           14.3
       3 b2         -8.24           6 b2          3.61           13.9
       1 b2        -15.22           5 b2         -0.17            8.2
 

 S^2 expectation value:                     2.00000000


 Change of electron number:

             0.000000


 Electric transition dipole moment (velocity rep.):

    x        0.000000        Norm:                  0.388443
    y        0.000000
    z        0.388443        Norm / debye:          0.987331


 Electric transition dipole moment (length rep.):

    x        0.000000        Norm:                  0.301741
    y        0.000000
    z        0.301741        Norm / debye:          0.766955


 Magnetic transition dipole moment / i:

    x        0.000000        Norm:                  0.000000
    y        0.000000
    z        0.000000        Norm / Bohr mag.:      0.000000


 Electric quadrupole transition moment:

   xx       -0.136874
   yy       -0.045847        1/3*trace:             1.588786
   zz        4.949080
   xy        0.000000
   xz        0.000000        Anisotropy:            5.041057
   yz        0.000000




                         9 triplet a1 excitation


 Total energy:                           -436.0679483674410    

 Excitation energy:                      0.3625615423589400    

 Excitation energy / eV:                  9.865805765135352    

 Excitation energy / nm:                  125.6706719735094    

 Excitation energy / cm^(-1):             79573.06061525077    


 Oscillator strength:

    velocity representation:             0.8606745691794398E-03

    length representation:               0.4275203180957069E-03

    mixed representation:                0.6065936577252351E-03


 Rotatory strength:

    velocity representation:              0.000000000000000    

    velocity rep. / 10^(-40)erg*cm^3:     0.000000000000000    

    length representation:                0.000000000000000    

    length rep. / 10^(-40)erg*cm^3:       0.000000000000000    


 Dominant contributions:

    occ. orbital  energy / eV   virt. orbital  energy / eV   |coeff.|^2*100
      11 b1         -8.62          12 b1          2.10           85.3
      11 b1         -8.62          13 b1          3.24            5.9
 

 S^2 expectation value:                     2.00000000


 Change of electron number:

             0.000000


 Electric transition dipole moment (velocity rep.):

    x        0.000000        Norm:                  0.059673
    y        0.000000
    z        0.059673        Norm / debye:          0.151674


 Electric transition dipole moment (length rep.):

    x        0.000000        Norm:                  0.042057
    y        0.000000
    z        0.042057        Norm / debye:          0.106898


 Magnetic transition dipole moment / i:

    x        0.000000        Norm:                  0.000000
    y        0.000000
    z        0.000000        Norm / Bohr mag.:      0.000000


 Electric quadrupole transition moment:

   xx        0.823239
   yy       -0.002172        1/3*trace:             0.389005
   zz        0.345948
   xy        0.000000
   xz        0.000000        Anisotropy:            0.717738
   yz        0.000000




                        10 triplet a1 excitation


 Total energy:                           -436.0573171368031    

 Excitation energy:                      0.3731927729968373    

 Excitation energy / eV:                  10.15509639379782    

 Excitation energy / nm:                  122.0906618692376    

 Excitation energy / cm^(-1):             81906.34603338980    


 Oscillator strength:

    velocity representation:             0.2369197621740103E-04

    length representation:               0.1052116310985108E-03

    mixed representation:                0.4992666083146246E-04


 Rotatory strength:

    velocity representation:              0.000000000000000    

    velocity rep. / 10^(-40)erg*cm^3:     0.000000000000000    

    length representation:                0.000000000000000    

    length rep. / 10^(-40)erg*cm^3:       0.000000000000000    


 Dominant contributions:

    occ. orbital  energy / eV   virt. orbital  energy / eV   |coeff.|^2*100
       3 b2         -8.24           6 b2          3.61           52.1
       2 b2        -11.34           5 b2         -0.17           31.5
      16 a1         -9.03          18 a1          2.30            6.5
 

 S^2 expectation value:                     2.00000000


 Change of electron number:

             0.000000


 Electric transition dipole moment (velocity rep.):

    x        0.000000        Norm:                  0.009758
    y        0.000000
    z       -0.009758        Norm / debye:          0.024804


 Electric transition dipole moment (length rep.):

    x        0.000000        Norm:                  0.020564
    y        0.000000
    z        0.020564        Norm / debye:          0.052269


 Magnetic transition dipole moment / i:

    x        0.000000        Norm:                  0.000000
    y        0.000000
    z        0.000000        Norm / Bohr mag.:      0.000000


 Electric quadrupole transition moment:

   xx        0.187306
   yy        0.042859        1/3*trace:             0.114049
   zz        0.111983
   xy        0.000000
   xz        0.000000        Anisotropy:            0.125133
   yz        0.000000



 ==============================================================================

                              I R R E P   a2  

 ==============================================================================


 Excitation is electric dipole forbidden

 Excitation is magnetic dipole allowed

 Excitation is electric quadrupole allowed




                         1 triplet a2 excitation


 Total energy:                           -436.3063124968380    

 Excitation energy:                      0.1241974129619853    

 Excitation energy / eV:                  3.379585007397676    

 Excitation energy / nm:                  366.8623329050030    

 Excitation energy / cm^(-1):             27258.18134372713    


 Oscillator strength:

    velocity representation:              0.000000000000000    

    length representation:                0.000000000000000    

    mixed representation:                 0.000000000000000    


 Rotatory strength:

    velocity representation:              0.000000000000000    

    velocity rep. / 10^(-40)erg*cm^3:     0.000000000000000    

    length representation:                0.000000000000000    

    length rep. / 10^(-40)erg*cm^3:       0.000000000000000    


 Dominant contributions:

    occ. orbital  energy / eV   virt. orbital  energy / eV   |coeff.|^2*100
      11 b1         -8.62           4 b2         -2.55           92.7
 

 S^2 expectation value:                     2.00000000


 Change of electron number:

             0.000000


 Electric transition dipole moment (velocity rep.):

    x        0.000000        Norm:                  0.000000
    y        0.000000
    z        0.000000        Norm / debye:          0.000000


 Electric transition dipole moment (length rep.):

    x        0.000000        Norm:                  0.000000
    y        0.000000
    z        0.000000        Norm / debye:          0.000000


 Magnetic transition dipole moment / i:

    x        0.000000        Norm:                  0.002109
    y        0.000000
    z        0.002109        Norm / Bohr mag.:      0.577972


 Electric quadrupole transition moment:

   xx        0.000000
   yy        0.000000        1/3*trace:             0.000000
   zz        0.000000
   xy        0.226031
   xz        0.000000        Anisotropy:            0.391497
   yz        0.000000




                         2 triplet a2 excitation


 Total energy:                           -436.1919205738747    

 Excitation energy:                      0.2385893359253481    

 Excitation energy / eV:                  6.492348941801860    

 Excitation energy / nm:                  190.9697786084465    

 Excitation energy / cm^(-1):             52364.30639117402    


 Oscillator strength:

    velocity representation:              0.000000000000000    

    length representation:                0.000000000000000    

    mixed representation:                 0.000000000000000    


 Rotatory strength:

    velocity representation:              0.000000000000000    

    velocity rep. / 10^(-40)erg*cm^3:     0.000000000000000    

    length representation:                0.000000000000000    

    length rep. / 10^(-40)erg*cm^3:       0.000000000000000    


 Dominant contributions:

    occ. orbital  energy / eV   virt. orbital  energy / eV   |coeff.|^2*100
      10 b1        -10.58           4 b2         -2.55           94.4
 

 S^2 expectation value:                     2.00000000


 Change of electron number:

             0.000000


 Electric transition dipole moment (velocity rep.):

    x        0.000000        Norm:                  0.000000
    y        0.000000
    z        0.000000        Norm / debye:          0.000000


 Electric transition dipole moment (length rep.):

    x        0.000000        Norm:                  0.000000
    y        0.000000
    z        0.000000        Norm / debye:          0.000000


 Magnetic transition dipole moment / i:

    x        0.000000        Norm:                  0.000513
    y        0.000000
    z       -0.000513        Norm / Bohr mag.:      0.140636


 Electric quadrupole transition moment:

   xx        0.000000
   yy        0.000000        1/3*trace:             0.000000
   zz        0.000000
   xy       -0.178530
   xz        0.000000        Anisotropy:            0.309223
   yz        0.000000




                         3 triplet a2 excitation


 Total energy:                           -436.1784706964460    

 Excitation energy:                      0.2520392133540378    

 Excitation energy / eV:                  6.858338884951878    

 Excitation energy / nm:                  180.7788242696880    

 Excitation energy / cm^(-1):             55316.21327279597    


 Oscillator strength:

    velocity representation:              0.000000000000000    

    length representation:                0.000000000000000    

    mixed representation:                 0.000000000000000    


 Rotatory strength:

    velocity representation:              0.000000000000000    

    velocity rep. / 10^(-40)erg*cm^3:     0.000000000000000    

    length representation:                0.000000000000000    

    length rep. / 10^(-40)erg*cm^3:       0.000000000000000    


 Dominant contributions:

    occ. orbital  energy / eV   virt. orbital  energy / eV   |coeff.|^2*100
      16 a1         -9.03           3 a2         -0.99           94.4
 

 S^2 expectation value:                     2.00000000


 Change of electron number:

             0.000000


 Electric transition dipole moment (velocity rep.):

    x        0.000000        Norm:                  0.000000
    y        0.000000
    z        0.000000        Norm / debye:          0.000000


 Electric transition dipole moment (length rep.):

    x        0.000000        Norm:                  0.000000
    y        0.000000
    z        0.000000        Norm / debye:          0.000000


 Magnetic transition dipole moment / i:

    x        0.000000        Norm:                  0.000816
    y        0.000000
    z       -0.000816        Norm / Bohr mag.:      0.223693


 Electric quadrupole transition moment:

   xx        0.000000
   yy        0.000000        1/3*trace:             0.000000
   zz        0.000000
   xy       -0.130322
   xz        0.000000        Anisotropy:            0.225724
   yz        0.000000




                         4 triplet a2 excitation


 Total energy:                           -436.1729023653899    

 Excitation energy:                      0.2576075444101451    

 Excitation energy / eV:                  7.009860947325326    

 Excitation energy / nm:                  176.8711889410240    

 Excitation energy / cm^(-1):             56538.32067495044    


 Oscillator strength:

    velocity representation:              0.000000000000000    

    length representation:                0.000000000000000    

    mixed representation:                 0.000000000000000    


 Rotatory strength:

    velocity representation:              0.000000000000000    

    velocity rep. / 10^(-40)erg*cm^3:     0.000000000000000    

    length representation:                0.000000000000000    

    length rep. / 10^(-40)erg*cm^3:       0.000000000000000    


 Dominant contributions:

    occ. orbital  energy / eV   virt. orbital  energy / eV   |coeff.|^2*100
      11 b1         -8.62           5 b2         -0.17           89.1
      11 b1         -8.62           4 b2         -2.55            6.6
 

 S^2 expectation value:                     2.00000000


 Change of electron number:

             0.000000


 Electric transition dipole moment (velocity rep.):

    x        0.000000        Norm:                  0.000000
    y        0.000000
    z        0.000000        Norm / debye:          0.000000


 Electric transition dipole moment (length rep.):

    x        0.000000        Norm:                  0.000000
    y        0.000000
    z        0.000000        Norm / debye:          0.000000


 Magnetic transition dipole moment / i:

    x        0.000000        Norm:                  0.000688
    y        0.000000
    z        0.000688        Norm / Bohr mag.:      0.188471


 Electric quadrupole transition moment:

   xx        0.000000
   yy        0.000000        1/3*trace:             0.000000
   zz        0.000000
   xy        0.176290
   xz        0.000000        Anisotropy:            0.305343
   yz        0.000000




                         5 triplet a2 excitation


 Total energy:                           -436.1415771079519    

 Excitation energy:                      0.2889328018480259    

 Excitation energy / eV:                  7.862264937594742    

 Excitation energy / nm:                  157.6953269707522    

 Excitation energy / cm^(-1):             63413.41998271178    


 Oscillator strength:

    velocity representation:              0.000000000000000    

    length representation:                0.000000000000000    

    mixed representation:                 0.000000000000000    


 Rotatory strength:

    velocity representation:              0.000000000000000    

    velocity rep. / 10^(-40)erg*cm^3:     0.000000000000000    

    length representation:                0.000000000000000    

    length rep. / 10^(-40)erg*cm^3:       0.000000000000000    


 Dominant contributions:

    occ. orbital  energy / eV   virt. orbital  energy / eV   |coeff.|^2*100
       2 a2         -8.12          17 a1          1.15           97.2
 

 S^2 expectation value:                     2.00000000


 Change of electron number:

             0.000000


 Electric transition dipole moment (velocity rep.):

    x        0.000000        Norm:                  0.000000
    y        0.000000
    z        0.000000        Norm / debye:          0.000000


 Electric transition dipole moment (length rep.):

    x        0.000000        Norm:                  0.000000
    y        0.000000
    z        0.000000        Norm / debye:          0.000000


 Magnetic transition dipole moment / i:

    x        0.000000        Norm:                  0.000190
    y        0.000000
    z       -0.000190        Norm / Bohr mag.:      0.052193


 Electric quadrupole transition moment:

   xx        0.000000
   yy        0.000000        1/3*trace:             0.000000
   zz        0.000000
   xy        0.261481
   xz        0.000000        Anisotropy:            0.452898
   yz        0.000000




                         6 triplet a2 excitation


 Total energy:                           -436.1332951323792    

 Excitation energy:                      0.2972147774207979    

 Excitation energy / eV:                  8.087629055975704    

 Excitation energy / nm:                  153.3011011612360    

 Excitation energy / cm^(-1):             65231.10351301233    


 Oscillator strength:

    velocity representation:              0.000000000000000    

    length representation:                0.000000000000000    

    mixed representation:                 0.000000000000000    


 Rotatory strength:

    velocity representation:              0.000000000000000    

    velocity rep. / 10^(-40)erg*cm^3:     0.000000000000000    

    length representation:                0.000000000000000    

    length rep. / 10^(-40)erg*cm^3:       0.000000000000000    


 Dominant contributions:

    occ. orbital  energy / eV   virt. orbital  energy / eV   |coeff.|^2*100
      15 a1        -11.10           3 a2         -0.99           92.4
 

 S^2 expectation value:                     2.00000000


 Change of electron number:

             0.000000


 Electric transition dipole moment (velocity rep.):

    x        0.000000        Norm:                  0.000000
    y        0.000000
    z        0.000000        Norm / debye:          0.000000


 Electric transition dipole moment (length rep.):

    x        0.000000        Norm:                  0.000000
    y        0.000000
    z        0.000000        Norm / debye:          0.000000


 Magnetic transition dipole moment / i:

    x        0.000000        Norm:                  0.001274
    y        0.000000
    z        0.001274        Norm / Bohr mag.:      0.349224


 Electric quadrupole transition moment:

   xx        0.000000
   yy        0.000000        1/3*trace:             0.000000
   zz        0.000000
   xy        0.166852
   xz        0.000000        Anisotropy:            0.288996
   yz        0.000000




                         7 triplet a2 excitation


 Total energy:                           -436.1186991274440    

 Excitation energy:                      0.3118107823560427    

 Excitation energy / eV:                  8.484806728767925    

 Excitation energy / nm:                  146.1250066970848    

 Excitation energy / cm^(-1):             68434.55630587054    


 Oscillator strength:

    velocity representation:              0.000000000000000    

    length representation:                0.000000000000000    

    mixed representation:                 0.000000000000000    


 Rotatory strength:

    velocity representation:              0.000000000000000    

    velocity rep. / 10^(-40)erg*cm^3:     0.000000000000000    

    length representation:                0.000000000000000    

    length rep. / 10^(-40)erg*cm^3:       0.000000000000000    


 Dominant contributions:

    occ. orbital  energy / eV   virt. orbital  energy / eV   |coeff.|^2*100
      10 b1        -10.58           5 b2         -0.17           54.2
       9 b1        -12.74           4 b2         -2.55           19.4
       8 b1        -13.48           4 b2         -2.55           15.9
       7 b1        -14.69           4 b2         -2.55            4.7
 

 S^2 expectation value:                     2.00000000


 Change of electron number:

             0.000000


 Electric transition dipole moment (velocity rep.):

    x        0.000000        Norm:                  0.000000
    y        0.000000
    z        0.000000        Norm / debye:          0.000000


 Electric transition dipole moment (length rep.):

    x        0.000000        Norm:                  0.000000
    y        0.000000
    z        0.000000        Norm / debye:          0.000000


 Magnetic transition dipole moment / i:

    x        0.000000        Norm:                  0.002397
    y        0.000000
    z       -0.002397        Norm / Bohr mag.:      0.657024


 Electric quadrupole transition moment:

   xx        0.000000
   yy        0.000000        1/3*trace:             0.000000
   zz        0.000000
   xy       -0.551601
   xz        0.000000        Anisotropy:            0.955401
   yz        0.000000




                         8 triplet a2 excitation


 Total energy:                           -436.1071598928294    

 Excitation energy:                      0.3233500169705751    

 Excitation energy / eV:                  8.798805413362542    

 Excitation energy / nm:                  140.9103147322434    

 Excitation energy / cm^(-1):             70967.12556145570    


 Oscillator strength:

    velocity representation:              0.000000000000000    

    length representation:                0.000000000000000    

    mixed representation:                 0.000000000000000    


 Rotatory strength:

    velocity representation:              0.000000000000000    

    velocity rep. / 10^(-40)erg*cm^3:     0.000000000000000    

    length representation:                0.000000000000000    

    length rep. / 10^(-40)erg*cm^3:       0.000000000000000    


 Dominant contributions:

    occ. orbital  energy / eV   virt. orbital  energy / eV   |coeff.|^2*100
       9 b1        -12.74           4 b2         -2.55           66.2
       8 b1        -13.48           4 b2         -2.55           12.1
       7 b1        -14.69           4 b2         -2.55            7.0
      10 b1        -10.58           5 b2         -0.17            5.8
 

 S^2 expectation value:                     2.00000000


 Change of electron number:

             0.000000


 Electric transition dipole moment (velocity rep.):

    x        0.000000        Norm:                  0.000000
    y        0.000000
    z        0.000000        Norm / debye:          0.000000


 Electric transition dipole moment (length rep.):

    x        0.000000        Norm:                  0.000000
    y        0.000000
    z        0.000000        Norm / debye:          0.000000


 Magnetic transition dipole moment / i:

    x        0.000000        Norm:                  0.004021
    y        0.000000
    z       -0.004021        Norm / Bohr mag.:      1.101984


 Electric quadrupole transition moment:

   xx        0.000000
   yy        0.000000        1/3*trace:             0.000000
   zz        0.000000
   xy       -1.033073
   xz        0.000000        Anisotropy:            1.789335
   yz        0.000000




                         9 triplet a2 excitation


 Total energy:                           -436.1007230977049    

 Excitation energy:                      0.3297868120950730    

 Excitation energy / eV:                  8.973959595560380    

 Excitation energy / nm:                  138.1600203190196    

 Excitation energy / cm^(-1):             72379.83879429645    


 Oscillator strength:

    velocity representation:              0.000000000000000    

    length representation:                0.000000000000000    

    mixed representation:                 0.000000000000000    


 Rotatory strength:

    velocity representation:              0.000000000000000    

    velocity rep. / 10^(-40)erg*cm^3:     0.000000000000000    

    length representation:                0.000000000000000    

    length rep. / 10^(-40)erg*cm^3:       0.000000000000000    


 Dominant contributions:

    occ. orbital  energy / eV   virt. orbital  energy / eV   |coeff.|^2*100
      10 b1        -10.58           5 b2         -0.17           33.6
       8 b1        -13.48           4 b2         -2.55           32.2
       7 b1        -14.69           4 b2         -2.55           20.1
       9 b1        -12.74           4 b2         -2.55            5.3
 

 S^2 expectation value:                     2.00000000


 Change of electron number:

             0.000000


 Electric transition dipole moment (velocity rep.):

    x        0.000000        Norm:                  0.000000
    y        0.000000
    z        0.000000        Norm / debye:          0.000000


 Electric transition dipole moment (length rep.):

    x        0.000000        Norm:                  0.000000
    y        0.000000
    z        0.000000        Norm / debye:          0.000000


 Magnetic transition dipole moment / i:

    x        0.000000        Norm:                  0.002691
    y        0.000000
    z        0.002691        Norm / Bohr mag.:      0.737464


 Electric quadrupole transition moment:

   xx        0.000000
   yy        0.000000        1/3*trace:             0.000000
   zz        0.000000
   xy        0.772396
   xz        0.000000        Anisotropy:            1.337830
   yz        0.000000




                        10 triplet a2 excitation


 Total energy:                           -436.0956488818214    

 Excitation energy:                      0.3348610279785723    

 Excitation energy / eV:                  9.112036094218384    

 Excitation energy / nm:                  136.0664540004805    

 Excitation energy / cm^(-1):             73493.50045141952    


 Oscillator strength:

    velocity representation:              0.000000000000000    

    length representation:                0.000000000000000    

    mixed representation:                 0.000000000000000    


 Rotatory strength:

    velocity representation:              0.000000000000000    

    velocity rep. / 10^(-40)erg*cm^3:     0.000000000000000    

    length representation:                0.000000000000000    

    length rep. / 10^(-40)erg*cm^3:       0.000000000000000    


 Dominant contributions:

    occ. orbital  energy / eV   virt. orbital  energy / eV   |coeff.|^2*100
       3 b2         -8.24          12 b1          2.10           49.7
       2 a2         -8.12          18 a1          2.30           44.0
 

 S^2 expectation value:                     2.00000000


 Change of electron number:

             0.000000


 Electric transition dipole moment (velocity rep.):

    x        0.000000        Norm:                  0.000000
    y        0.000000
    z        0.000000        Norm / debye:          0.000000


 Electric transition dipole moment (length rep.):

    x        0.000000        Norm:                  0.000000
    y        0.000000
    z        0.000000        Norm / debye:          0.000000


 Magnetic transition dipole moment / i:

    x        0.000000        Norm:                  0.000527
    y        0.000000
    z        0.000527        Norm / Bohr mag.:      0.144330


 Electric quadrupole transition moment:

   xx        0.000000
   yy        0.000000        1/3*trace:             0.000000
   zz        0.000000
   xy        0.264003
   xz        0.000000        Anisotropy:            0.457267
   yz        0.000000



 ==============================================================================

                              I R R E P   b1  

 ==============================================================================


 Excitation is electric dipole allowed

 Excitation is magnetic dipole allowed

 Excitation is electric quadrupole allowed




                         1 triplet b1 excitation


 Total energy:                           -436.3093704157941    

 Excitation energy:                      0.1211394940058620    

 Excitation energy / eV:                  3.296374763226851    

 Excitation energy / nm:                  376.1230227509054    

 Excitation energy / cm^(-1):             26587.04571012143    


 Oscillator strength:

    velocity representation:             0.5994085197425085    

    length representation:               0.2494747360221342    

    mixed representation:                0.3867005071527325    


 Rotatory strength:

    velocity representation:              0.000000000000000    

    velocity rep. / 10^(-40)erg*cm^3:     0.000000000000000    

    length representation:                0.000000000000000    

    length rep. / 10^(-40)erg*cm^3:       0.000000000000000    


 Dominant contributions:

    occ. orbital  energy / eV   virt. orbital  energy / eV   |coeff.|^2*100
       1 a2         -9.10           4 b2         -2.55           81.3
       2 a2         -8.12           4 b2         -2.55            9.5
 

 S^2 expectation value:                     2.00000000


 Change of electron number:

             0.000000


 Electric transition dipole moment (velocity rep.):

    x       -2.724358        Norm:                  2.724358
    y        0.000000
    z        0.000000        Norm / debye:          6.924680


 Electric transition dipole moment (length rep.):

    x       -1.757584        Norm:                  1.757584
    y        0.000000
    z        0.000000        Norm / debye:          4.467366


 Magnetic transition dipole moment / i:

    x        0.000000        Norm:                  0.005879
    y       -0.005879
    z        0.000000        Norm / Bohr mag.:      1.611357


 Electric quadrupole transition moment:

   xx        0.000000
   yy        0.000000        1/3*trace:             0.000000
   zz        0.000000
   xy        0.000000
   xz      -11.188778        Anisotropy:           19.379533
   yz        0.000000




                         2 triplet b1 excitation


 Total energy:                           -436.2841805523291    

 Excitation energy:                      0.1463293574708261    

 Excitation energy / eV:                  3.981826117440198    

 Excitation energy / nm:                  311.3753347074187    

 Excitation energy / cm^(-1):             32115.58169147784    


 Oscillator strength:

    velocity representation:             0.6626161689711150    

    length representation:               0.4682772028517034    

    mixed representation:                0.5570350493192555    


 Rotatory strength:

    velocity representation:              0.000000000000000    

    velocity rep. / 10^(-40)erg*cm^3:     0.000000000000000    

    length representation:                0.000000000000000    

    length rep. / 10^(-40)erg*cm^3:       0.000000000000000    


 Dominant contributions:

    occ. orbital  energy / eV   virt. orbital  energy / eV   |coeff.|^2*100
       2 a2         -8.12           4 b2         -2.55           84.6
       1 a2         -9.10           4 b2         -2.55            8.6
 

 S^2 expectation value:                     2.00000000


 Change of electron number:

             0.000000


 Electric transition dipole moment (velocity rep.):

    x       -2.606219        Norm:                  2.606219
    y        0.000000
    z        0.000000        Norm / debye:          6.624398


 Electric transition dipole moment (length rep.):

    x       -2.190945        Norm:                  2.190945
    y        0.000000
    z        0.000000        Norm / debye:          5.568868


 Magnetic transition dipole moment / i:

    x        0.000000        Norm:                  0.000727
    y        0.000727
    z        0.000000        Norm / Bohr mag.:      0.199216


 Electric quadrupole transition moment:

   xx        0.000000
   yy        0.000000        1/3*trace:             0.000000
   zz        0.000000
   xy        0.000000
   xz       -1.350903        Anisotropy:            2.339832
   yz        0.000000




                         3 triplet b1 excitation


 Total energy:                           -436.2395806811541    

 Excitation energy:                      0.1909292286458796    

 Excitation energy / eV:                  5.195450881115542    

 Excitation energy / nm:                  238.6400080445896    

 Excitation energy / cm^(-1):             41904.12194689029    


 Oscillator strength:

    velocity representation:             0.5452669746803105    

    length representation:               0.4490760610848648    

    mixed representation:                0.4948397167054142    


 Rotatory strength:

    velocity representation:              0.000000000000000    

    velocity rep. / 10^(-40)erg*cm^3:     0.000000000000000    

    length representation:                0.000000000000000    

    length rep. / 10^(-40)erg*cm^3:       0.000000000000000    


 Dominant contributions:

    occ. orbital  energy / eV   virt. orbital  energy / eV   |coeff.|^2*100
       3 b2         -8.24           3 a2         -0.99           96.5
 

 S^2 expectation value:                     2.00000000


 Change of electron number:

             0.000000


 Electric transition dipole moment (velocity rep.):

    x        2.069732        Norm:                  2.069732
    y        0.000000
    z        0.000000        Norm / debye:          5.260773


 Electric transition dipole moment (length rep.):

    x        1.878319        Norm:                  1.878319
    y        0.000000
    z        0.000000        Norm / debye:          4.774247


 Magnetic transition dipole moment / i:

    x        0.000000        Norm:                  0.001349
    y       -0.001349
    z        0.000000        Norm / Bohr mag.:      0.369604


 Electric quadrupole transition moment:

   xx        0.000000
   yy        0.000000        1/3*trace:             0.000000
   zz        0.000000
   xy        0.000000
   xz       -2.775893        Anisotropy:            4.807987
   yz        0.000000




                         4 triplet b1 excitation


 Total energy:                           -436.2023064645193    

 Excitation energy:                      0.2282034452806803    

 Excitation energy / eV:                  6.209734356891508    

 Excitation energy / nm:                  199.6611076750356    

 Excitation energy / cm^(-1):             50084.86687744496    


 Oscillator strength:

    velocity representation:             0.2211827249970765    

    length representation:               0.1838625446805543    

    mixed representation:                0.2016611481107398    


 Rotatory strength:

    velocity representation:              0.000000000000000    

    velocity rep. / 10^(-40)erg*cm^3:     0.000000000000000    

    length representation:                0.000000000000000    

    length rep. / 10^(-40)erg*cm^3:       0.000000000000000    


 Dominant contributions:

    occ. orbital  energy / eV   virt. orbital  energy / eV   |coeff.|^2*100
       2 a2         -8.12           5 b2         -0.17           91.6
 

 S^2 expectation value:                     2.00000000


 Change of electron number:

             0.000000


 Electric transition dipole moment (velocity rep.):

    x       -1.205758        Norm:                  1.205758
    y        0.000000
    z        0.000000        Norm / debye:          3.064754


 Electric transition dipole moment (length rep.):

    x       -1.099338        Norm:                  1.099338
    y        0.000000
    z        0.000000        Norm / debye:          2.794259


 Magnetic transition dipole moment / i:

    x        0.000000        Norm:                  0.000263
    y        0.000263
    z        0.000000        Norm / Bohr mag.:      0.072143


 Electric quadrupole transition moment:

   xx        0.000000
   yy        0.000000        1/3*trace:             0.000000
   zz        0.000000
   xy        0.000000
   xz        2.698272        Anisotropy:            4.673544
   yz        0.000000




                         5 triplet b1 excitation


 Total energy:                           -436.1558551577718    

 Excitation energy:                      0.2746547520282073    

 Excitation energy / eV:                  7.473739267412659    

 Excitation energy / nm:                  165.8931888981867    

 Excitation energy / cm^(-1):             60279.75027139087    


 Oscillator strength:

    velocity representation:             0.5149590986353576E-01

    length representation:               0.3064413572737640E-01

    mixed representation:                0.3972464790609139E-01


 Rotatory strength:

    velocity representation:              0.000000000000000    

    velocity rep. / 10^(-40)erg*cm^3:     0.000000000000000    

    length representation:                0.000000000000000    

    length rep. / 10^(-40)erg*cm^3:       0.000000000000000    


 Dominant contributions:

    occ. orbital  energy / eV   virt. orbital  energy / eV   |coeff.|^2*100
       1 a2         -9.10           5 b2         -0.17           89.3
       1 a2         -9.10           4 b2         -2.55            9.0
 

 S^2 expectation value:                     2.00000000


 Change of electron number:

             0.000000


 Electric transition dipole moment (velocity rep.):

    x        0.530321        Norm:                  0.530321
    y        0.000000
    z        0.000000        Norm / debye:          1.347951


 Electric transition dipole moment (length rep.):

    x        0.409096        Norm:                  0.409096
    y        0.000000
    z        0.000000        Norm / debye:          1.039827


 Magnetic transition dipole moment / i:

    x        0.000000        Norm:                  0.003004
    y        0.003004
    z        0.000000        Norm / Bohr mag.:      0.823307


 Electric quadrupole transition moment:

   xx        0.000000
   yy        0.000000        1/3*trace:             0.000000
   zz        0.000000
   xy        0.000000
   xz        3.488769        Anisotropy:            6.042725
   yz        0.000000




                         6 triplet b1 excitation


 Total energy:                           -436.1448299357466    

 Excitation energy:                      0.2856799740533957    

 Excitation energy / eV:                  7.773750951802270    

 Excitation energy / nm:                  159.4908877003884    

 Excitation energy / cm^(-1):             62699.50680375460    


 Oscillator strength:

    velocity representation:             0.1106357477032032E-01

    length representation:               0.9703022111399643E-02

    mixed representation:                0.1036098984786402E-01


 Rotatory strength:

    velocity representation:              0.000000000000000    

    velocity rep. / 10^(-40)erg*cm^3:     0.000000000000000    

    length representation:                0.000000000000000    

    length rep. / 10^(-40)erg*cm^3:       0.000000000000000    


 Dominant contributions:

    occ. orbital  energy / eV   virt. orbital  energy / eV   |coeff.|^2*100
       2 b2        -11.34           3 a2         -0.99           80.4
       2 a2         -8.12           6 b2          3.61           14.1
 

 S^2 expectation value:                     2.00000000


 Change of electron number:

             0.000000


 Electric transition dipole moment (velocity rep.):

    x       -0.241020        Norm:                  0.241020
    y        0.000000
    z        0.000000        Norm / debye:          0.612617


 Electric transition dipole moment (length rep.):

    x       -0.225714        Norm:                  0.225714
    y        0.000000
    z        0.000000        Norm / debye:          0.573713


 Magnetic transition dipole moment / i:

    x        0.000000        Norm:                  0.000382
    y        0.000382
    z        0.000000        Norm / Bohr mag.:      0.104661


 Electric quadrupole transition moment:

   xx        0.000000
   yy        0.000000        1/3*trace:             0.000000
   zz        0.000000
   xy        0.000000
   xz       -4.399957        Anisotropy:            7.620949
   yz        0.000000




                         7 triplet b1 excitation


 Total energy:                           -436.1094681716287    

 Excitation energy:                      0.3210417381712315    

 Excitation energy / eV:                  8.735993924482791    

 Excitation energy / nm:                  141.9234549362496    

 Excitation energy / cm^(-1):             70460.51692441713    


 Oscillator strength:

    velocity representation:             0.2981963877308686E-03

    length representation:               0.1565137996922212E-03

    mixed representation:                0.2160366860009037E-03


 Rotatory strength:

    velocity representation:              0.000000000000000    

    velocity rep. / 10^(-40)erg*cm^3:     0.000000000000000    

    length representation:                0.000000000000000    

    length rep. / 10^(-40)erg*cm^3:       0.000000000000000    


 Dominant contributions:

    occ. orbital  energy / eV   virt. orbital  energy / eV   |coeff.|^2*100
      11 b1         -8.62          17 a1          1.15           85.5
      11 b1         -8.62          18 a1          2.30            9.0
 

 S^2 expectation value:                     2.00000000


 Change of electron number:

             0.000000


 Electric transition dipole moment (velocity rep.):

    x       -0.037326        Norm:                  0.037326
    y        0.000000
    z        0.000000        Norm / debye:          0.094875


 Electric transition dipole moment (length rep.):

    x       -0.027042        Norm:                  0.027042
    y        0.000000
    z        0.000000        Norm / debye:          0.068735


 Magnetic transition dipole moment / i:

    x        0.000000        Norm:                  0.001755
    y       -0.001755
    z        0.000000        Norm / Bohr mag.:      0.480879


 Electric quadrupole transition moment:

   xx        0.000000
   yy        0.000000        1/3*trace:             0.000000
   zz        0.000000
   xy        0.000000
   xz       -0.731040        Anisotropy:            1.266198
   yz        0.000000




                         8 triplet b1 excitation


 Total energy:                           -436.0711106287762    

 Excitation energy:                      0.3593992810237439    

 Excitation energy / eV:                  9.779756219150260    

 Excitation energy / nm:                  126.7764157185107    

 Excitation energy / cm^(-1):             78879.02447653172    


 Oscillator strength:

    velocity representation:             0.1227943883119808    

    length representation:               0.9903658279059431E-01

    mixed representation:                0.1102775435176168    


 Rotatory strength:

    velocity representation:              0.000000000000000    

    velocity rep. / 10^(-40)erg*cm^3:     0.000000000000000    

    length representation:                0.000000000000000    

    length rep. / 10^(-40)erg*cm^3:       0.000000000000000    


 Dominant contributions:

    occ. orbital  energy / eV   virt. orbital  energy / eV   |coeff.|^2*100
      11 b1         -8.62          18 a1          2.30           54.1
      11 b1         -8.62          19 a1          2.78           29.1
      11 b1         -8.62          17 a1          1.15           10.2
 

 S^2 expectation value:                     2.00000000


 Change of electron number:

             0.000000


 Electric transition dipole moment (velocity rep.):

    x        0.715890        Norm:                  0.715890
    y        0.000000
    z        0.000000        Norm / debye:          1.819625


 Electric transition dipole moment (length rep.):

    x        0.642917        Norm:                  0.642917
    y        0.000000
    z        0.000000        Norm / debye:          1.634144


 Magnetic transition dipole moment / i:

    x        0.000000        Norm:                  0.004622
    y        0.004622
    z        0.000000        Norm / Bohr mag.:      1.266689


 Electric quadrupole transition moment:

   xx        0.000000
   yy        0.000000        1/3*trace:             0.000000
   zz        0.000000
   xy        0.000000
   xz        1.701589        Anisotropy:            2.947238
   yz        0.000000




                         9 triplet b1 excitation


 Total energy:                           -436.0679578464162    

 Excitation energy:                      0.3625520633838151    

 Excitation energy / eV:                  9.865547828987943    

 Excitation energy / nm:                  125.6739576510545    

 Excitation energy / cm^(-1):             79570.98022068581    


 Oscillator strength:

    velocity representation:             0.1524578473834133E-01

    length representation:               0.1425544215063494E-01

    mixed representation:                0.1474229976558806E-01


 Rotatory strength:

    velocity representation:              0.000000000000000    

    velocity rep. / 10^(-40)erg*cm^3:     0.000000000000000    

    length representation:                0.000000000000000    

    length rep. / 10^(-40)erg*cm^3:       0.000000000000000    


 Dominant contributions:

    occ. orbital  energy / eV   virt. orbital  energy / eV   |coeff.|^2*100
       2 a2         -8.12           6 b2          3.61           79.2
       2 b2        -11.34           3 a2         -0.99           15.4
 

 S^2 expectation value:                     2.00000000


 Change of electron number:

             0.000000


 Electric transition dipole moment (velocity rep.):

    x       -0.251151        Norm:                  0.251151
    y        0.000000
    z        0.000000        Norm / debye:          0.638368


 Electric transition dipole moment (length rep.):

    x       -0.242857        Norm:                  0.242857
    y        0.000000
    z        0.000000        Norm / debye:          0.617286


 Magnetic transition dipole moment / i:

    x        0.000000        Norm:                  0.000405
    y        0.000405
    z        0.000000        Norm / Bohr mag.:      0.111110


 Electric quadrupole transition moment:

   xx        0.000000
   yy        0.000000        1/3*trace:             0.000000
   zz        0.000000
   xy        0.000000
   xz       -0.167446        Anisotropy:            0.290024
   yz        0.000000




                        10 triplet b1 excitation


 Total energy:                           -436.0628387181355    

 Excitation energy:                      0.3676711916644289    

 Excitation energy / eV:                  10.00484645667678    

 Excitation energy / nm:                  123.9241846872392    

 Excitation energy / cm^(-1):             80694.49900957945    


 Oscillator strength:

    velocity representation:             0.4005500889697555E-01

    length representation:               0.3193165277241588E-01

    mixed representation:                0.3576342595297956E-01


 Rotatory strength:

    velocity representation:              0.000000000000000    

    velocity rep. / 10^(-40)erg*cm^3:     0.000000000000000    

    length representation:                0.000000000000000    

    length rep. / 10^(-40)erg*cm^3:       0.000000000000000    


 Dominant contributions:

    occ. orbital  energy / eV   virt. orbital  energy / eV   |coeff.|^2*100
      10 b1        -10.58          17 a1          1.15           80.3
      16 a1         -9.03          12 b1          2.10            8.1
       2 a2         -8.12           6 b2          3.61            3.8
 

 S^2 expectation value:                     2.00000000


 Change of electron number:

             0.000000


 Electric transition dipole moment (velocity rep.):

    x       -0.404245        Norm:                  0.404245
    y        0.000000
    z        0.000000        Norm / debye:          1.027495


 Electric transition dipole moment (length rep.):

    x       -0.360933        Norm:                  0.360933
    y        0.000000
    z        0.000000        Norm / debye:          0.917407


 Magnetic transition dipole moment / i:

    x        0.000000        Norm:                  0.000865
    y        0.000865
    z        0.000000        Norm / Bohr mag.:      0.237071


 Electric quadrupole transition moment:

   xx        0.000000
   yy        0.000000        1/3*trace:             0.000000
   zz        0.000000
   xy        0.000000
   xz        6.639510        Anisotropy:           11.499969
   yz        0.000000



 ==============================================================================

                              I R R E P   b2  

 ==============================================================================


 Excitation is electric dipole allowed

 Excitation is magnetic dipole allowed

 Excitation is electric quadrupole allowed




                         1 triplet b2 excitation


 Total energy:                           -436.2883498743774    

 Excitation energy:                      0.1421600354225230    

 Excitation energy / eV:                  3.868373043423508    

 Excitation energy / nm:                  320.5074655797476    

 Excitation energy / cm^(-1):             31200.52127465716    


 Oscillator strength:

    velocity representation:             0.4289727984516887E-04

    length representation:               0.6539608701503535E-05

    mixed representation:                0.1674907234882871E-04


 Rotatory strength:

    velocity representation:              0.000000000000000    

    velocity rep. / 10^(-40)erg*cm^3:     0.000000000000000    

    length representation:                0.000000000000000    

    length rep. / 10^(-40)erg*cm^3:       0.000000000000000    


 Dominant contributions:

    occ. orbital  energy / eV   virt. orbital  energy / eV   |coeff.|^2*100
      16 a1         -9.03           4 b2         -2.55           93.7
 

 S^2 expectation value:                     2.00000000


 Change of electron number:

             0.000000


 Electric transition dipole moment (velocity rep.):

    x        0.000000        Norm:                  0.021275
    y        0.021275
    z        0.000000        Norm / debye:          0.054076


 Electric transition dipole moment (length rep.):

    x        0.000000        Norm:                  0.008307
    y        0.008307
    z        0.000000        Norm / debye:          0.021114


 Magnetic transition dipole moment / i:

    x        0.003840        Norm:                  0.003840
    y        0.000000
    z        0.000000        Norm / Bohr mag.:      1.052528


 Electric quadrupole transition moment:

   xx        0.000000
   yy        0.000000        1/3*trace:             0.000000
   zz        0.000000
   xy        0.000000
   xz        0.000000        Anisotropy:            0.942092
   yz       -0.543917




                         2 triplet b2 excitation


 Total energy:                           -436.1893758553194    

 Excitation energy:                      0.2411340544806230    

 Excitation energy / eV:                  6.561594286550597    

 Excitation energy / nm:                  188.9544500802203    

 Excitation energy / cm^(-1):             52922.80755632842    


 Oscillator strength:

    velocity representation:             0.1332183033518176E-02

    length representation:               0.4304466522390426E-03

    mixed representation:                0.7572540702746674E-03


 Rotatory strength:

    velocity representation:              0.000000000000000    

    velocity rep. / 10^(-40)erg*cm^3:     0.000000000000000    

    length representation:                0.000000000000000    

    length rep. / 10^(-40)erg*cm^3:       0.000000000000000    


 Dominant contributions:

    occ. orbital  energy / eV   virt. orbital  energy / eV   |coeff.|^2*100
      11 b1         -8.62           3 a2         -0.99           99.0
 

 S^2 expectation value:                     2.00000000


 Change of electron number:

             0.000000


 Electric transition dipole moment (velocity rep.):

    x        0.000000        Norm:                  0.091033
    y        0.091033
    z        0.000000        Norm / debye:          0.231384


 Electric transition dipole moment (length rep.):

    x        0.000000        Norm:                  0.051746
    y        0.051746
    z        0.000000        Norm / debye:          0.131526


 Magnetic transition dipole moment / i:

    x       -0.000225        Norm:                  0.000225
    y        0.000000
    z        0.000000        Norm / Bohr mag.:      0.061641


 Electric quadrupole transition moment:

   xx        0.000000
   yy        0.000000        1/3*trace:             0.000000
   zz        0.000000
   xy        0.000000
   xz        0.000000        Anisotropy:            0.129486
   yz       -0.074759




                         3 triplet b2 excitation


 Total energy:                           -436.1757811162329    

 Excitation energy:                      0.2547287935670177    

 Excitation energy / eV:                  6.931526117658265    

 Excitation energy / nm:                  178.8700524270043    

 Excitation energy / cm^(-1):             55906.50789677774    


 Oscillator strength:

    velocity representation:             0.1793677173174515E-02

    length representation:               0.9637832547513677E-03

    mixed representation:                0.1314806458736557E-02


 Rotatory strength:

    velocity representation:              0.000000000000000    

    velocity rep. / 10^(-40)erg*cm^3:     0.000000000000000    

    length representation:                0.000000000000000    

    length rep. / 10^(-40)erg*cm^3:       0.000000000000000    


 Dominant contributions:

    occ. orbital  energy / eV   virt. orbital  energy / eV   |coeff.|^2*100
      15 a1        -11.10           4 b2         -2.55           81.3
      16 a1         -9.03           5 b2         -0.17           11.7
 

 S^2 expectation value:                     2.00000000


 Change of electron number:

             0.000000


 Electric transition dipole moment (velocity rep.):

    x        0.000000        Norm:                  0.102773
    y       -0.102773
    z        0.000000        Norm / debye:          0.261225


 Electric transition dipole moment (length rep.):

    x        0.000000        Norm:                  0.075335
    y       -0.075335
    z        0.000000        Norm / debye:          0.191484


 Magnetic transition dipole moment / i:

    x       -0.000073        Norm:                  0.000073
    y        0.000000
    z        0.000000        Norm / Bohr mag.:      0.019999


 Electric quadrupole transition moment:

   xx        0.000000
   yy        0.000000        1/3*trace:             0.000000
   zz        0.000000
   xy        0.000000
   xz        0.000000        Anisotropy:            0.572119
   yz        0.330313




                         4 triplet b2 excitation


 Total energy:                           -436.1629531392263    

 Excitation energy:                      0.2675567705737227    

 Excitation energy / eV:                  7.280593282047367    

 Excitation energy / nm:                  170.2941493960268    

 Excitation energy / cm^(-1):             58721.92341295243    


 Oscillator strength:

    velocity representation:             0.7189950520410719E-03

    length representation:               0.4255797699629408E-03

    mixed representation:                0.5531634015841359E-03


 Rotatory strength:

    velocity representation:              0.000000000000000    

    velocity rep. / 10^(-40)erg*cm^3:     0.000000000000000    

    length representation:                0.000000000000000    

    length rep. / 10^(-40)erg*cm^3:       0.000000000000000    


 Dominant contributions:

    occ. orbital  energy / eV   virt. orbital  energy / eV   |coeff.|^2*100
      16 a1         -9.03           5 b2         -0.17           79.8
      15 a1        -11.10           4 b2         -2.55           12.1
 

 S^2 expectation value:                     2.00000000


 Change of electron number:

             0.000000


 Electric transition dipole moment (velocity rep.):

    x        0.000000        Norm:                  0.063489
    y       -0.063489
    z        0.000000        Norm / debye:          0.161375


 Electric transition dipole moment (length rep.):

    x        0.000000        Norm:                  0.048846
    y       -0.048846
    z        0.000000        Norm / debye:          0.124155


 Magnetic transition dipole moment / i:

    x        0.002744        Norm:                  0.002744
    y        0.000000
    z        0.000000        Norm / Bohr mag.:      0.752010


 Electric quadrupole transition moment:

   xx        0.000000
   yy        0.000000        1/3*trace:             0.000000
   zz        0.000000
   xy        0.000000
   xz        0.000000        Anisotropy:            0.872028
   yz       -0.503466




                         5 triplet b2 excitation


 Total energy:                           -436.1540394778589    

 Excitation energy:                      0.2764704319410404    

 Excitation energy / eV:                  7.523146452838673    

 Excitation energy / nm:                  164.8037091710290    

 Excitation energy / cm^(-1):             60678.24594972933    


 Oscillator strength:

    velocity representation:             0.1307387291075725E-01

    length representation:               0.7837429160002563E-02

    mixed representation:                0.1012252699600927E-01


 Rotatory strength:

    velocity representation:              0.000000000000000    

    velocity rep. / 10^(-40)erg*cm^3:     0.000000000000000    

    length representation:                0.000000000000000    

    length rep. / 10^(-40)erg*cm^3:       0.000000000000000    


 Dominant contributions:

    occ. orbital  energy / eV   virt. orbital  energy / eV   |coeff.|^2*100
      10 b1        -10.58           3 a2         -0.99           97.0
 

 S^2 expectation value:                     2.00000000


 Change of electron number:

             0.000000


 Electric transition dipole moment (velocity rep.):

    x        0.000000        Norm:                  0.266332
    y       -0.266332
    z        0.000000        Norm / debye:          0.676954


 Electric transition dipole moment (length rep.):

    x        0.000000        Norm:                  0.206209
    y       -0.206209
    z        0.000000        Norm / debye:          0.524136


 Magnetic transition dipole moment / i:

    x        0.000001        Norm:                  0.000001
    y        0.000000
    z        0.000000        Norm / Bohr mag.:      0.000344


 Electric quadrupole transition moment:

   xx        0.000000
   yy        0.000000        1/3*trace:             0.000000
   zz        0.000000
   xy        0.000000
   xz        0.000000        Anisotropy:            0.135640
   yz        0.078312




                         6 triplet b2 excitation


 Total energy:                           -436.1368720900409    

 Excitation energy:                      0.2936378197590458    

 Excitation energy / eV:                  7.990295043958449    

 Excitation energy / nm:                  155.1685429941842    

 Excitation energy / cm^(-1):             64446.05205116974    


 Oscillator strength:

    velocity representation:             0.2474373996374603E-02

    length representation:               0.2912744447136162E-02

    mixed representation:                0.2684626439204948E-02


 Rotatory strength:

    velocity representation:              0.000000000000000    

    velocity rep. / 10^(-40)erg*cm^3:     0.000000000000000    

    length representation:                0.000000000000000    

    length rep. / 10^(-40)erg*cm^3:       0.000000000000000    


 Dominant contributions:

    occ. orbital  energy / eV   virt. orbital  energy / eV   |coeff.|^2*100
       3 b2         -8.24          17 a1          1.15           96.8
 

 S^2 expectation value:                     2.00000000


 Change of electron number:

             0.000000


 Electric transition dipole moment (velocity rep.):

    x        0.000000        Norm:                  0.112427
    y        0.112427
    z        0.000000        Norm / debye:          0.285764


 Electric transition dipole moment (length rep.):

    x        0.000000        Norm:                  0.121981
    y        0.121981
    z        0.000000        Norm / debye:          0.310046


 Magnetic transition dipole moment / i:

    x        0.000129        Norm:                  0.000129
    y        0.000000
    z        0.000000        Norm / Bohr mag.:      0.035251


 Electric quadrupole transition moment:

   xx        0.000000
   yy        0.000000        1/3*trace:             0.000000
   zz        0.000000
   xy        0.000000
   xz        0.000000        Anisotropy:            0.018782
   yz        0.010844




                         7 triplet b2 excitation


 Total energy:                           -436.1057543404764    

 Excitation energy:                      0.3247555693235856    

 Excitation energy / eV:                  8.837052455277986    

 Excitation energy / nm:                  140.3004504430863    

 Excitation energy / cm^(-1):             71275.60864506220    


 Oscillator strength:

    velocity representation:             0.3573177135584144E-02

    length representation:               0.6163838589244876E-02

    mixed representation:                0.4693025369047243E-02


 Rotatory strength:

    velocity representation:              0.000000000000000    

    velocity rep. / 10^(-40)erg*cm^3:     0.000000000000000    

    length representation:                0.000000000000000    

    length rep. / 10^(-40)erg*cm^3:       0.000000000000000    


 Dominant contributions:

    occ. orbital  energy / eV   virt. orbital  energy / eV   |coeff.|^2*100
       2 a2         -8.12          12 b1          2.10           91.1
 

 S^2 expectation value:                     2.00000000


 Change of electron number:

             0.000000


 Electric transition dipole moment (velocity rep.):

    x        0.000000        Norm:                  0.128468
    y        0.128468
    z        0.000000        Norm / debye:          0.326535


 Electric transition dipole moment (length rep.):

    x        0.000000        Norm:                  0.168730
    y        0.168730
    z        0.000000        Norm / debye:          0.428873


 Magnetic transition dipole moment / i:

    x        0.000191        Norm:                  0.000191
    y        0.000000
    z        0.000000        Norm / Bohr mag.:      0.052334


 Electric quadrupole transition moment:

   xx        0.000000
   yy        0.000000        1/3*trace:             0.000000
   zz        0.000000
   xy        0.000000
   xz        0.000000        Anisotropy:            0.840867
   yz       -0.485475




                         8 triplet b2 excitation


 Total energy:                           -436.0995129755737    

 Excitation energy:                      0.3309969342262893    

 Excitation energy / eV:                  9.006888708286990    

 Excitation energy / nm:                  137.6549083951641    

 Excitation energy / cm^(-1):             72645.42990214704    


 Oscillator strength:

    velocity representation:             0.7999095921512562E-02

    length representation:               0.5092841145747983E-02

    mixed representation:                0.6382642465144358E-02


 Rotatory strength:

    velocity representation:              0.000000000000000    

    velocity rep. / 10^(-40)erg*cm^3:     0.000000000000000    

    length representation:                0.000000000000000    

    length rep. / 10^(-40)erg*cm^3:       0.000000000000000    


 Dominant contributions:

    occ. orbital  energy / eV   virt. orbital  energy / eV   |coeff.|^2*100
      15 a1        -11.10           5 b2         -0.17           72.3
      13 a1        -14.53           4 b2         -2.55           10.5
      14 a1        -13.25           4 b2         -2.55            5.6
       9 b1        -12.74           3 a2         -0.99            2.1
 

 S^2 expectation value:                     2.00000000


 Change of electron number:

             0.000000


 Electric transition dipole moment (velocity rep.):

    x        0.000000        Norm:                  0.190394
    y        0.190394
    z        0.000000        Norm / debye:          0.483938


 Electric transition dipole moment (length rep.):

    x        0.000000        Norm:                  0.151920
    y        0.151920
    z        0.000000        Norm / debye:          0.386144


 Magnetic transition dipole moment / i:

    x        0.005106        Norm:                  0.005106
    y        0.000000
    z        0.000000        Norm / Bohr mag.:      1.399487


 Electric quadrupole transition moment:

   xx        0.000000
   yy        0.000000        1/3*trace:             0.000000
   zz        0.000000
   xy        0.000000
   xz        0.000000        Anisotropy:            1.878876
   yz       -1.084770




                         9 triplet b2 excitation


 Total energy:                           -436.0935087500931    

 Excitation energy:                      0.3370011597069184    

 Excitation energy / eV:                  9.170272066534398    

 Excitation energy / nm:                  135.2023616168719    

 Excitation energy / cm^(-1):             73963.20507214764    


 Oscillator strength:

    velocity representation:             0.3590355550430517E-08

    length representation:               0.8567474188091543E-04

    mixed representation:                0.5546194957300424E-06


 Rotatory strength:

    velocity representation:              0.000000000000000    

    velocity rep. / 10^(-40)erg*cm^3:     0.000000000000000    

    length representation:                0.000000000000000    

    length rep. / 10^(-40)erg*cm^3:       0.000000000000000    


 Dominant contributions:

    occ. orbital  energy / eV   virt. orbital  energy / eV   |coeff.|^2*100
       3 b2         -8.24          18 a1          2.30           85.4
       2 a2         -8.12          12 b1          2.10            4.5
       3 b2         -8.24          19 a1          2.78            4.3
 

 S^2 expectation value:                     2.00000000


 Change of electron number:

             0.000000


 Electric transition dipole moment (velocity rep.):

    x        0.000000        Norm:                  0.000126
    y       -0.000126
    z        0.000000        Norm / debye:          0.000321


 Electric transition dipole moment (length rep.):

    x        0.000000        Norm:                  0.019528
    y        0.019528
    z        0.000000        Norm / debye:          0.049635


 Magnetic transition dipole moment / i:

    x        0.000803        Norm:                  0.000803
    y        0.000000
    z        0.000000        Norm / Bohr mag.:      0.220196


 Electric quadrupole transition moment:

   xx        0.000000
   yy        0.000000        1/3*trace:             0.000000
   zz        0.000000
   xy        0.000000
   xz        0.000000        Anisotropy:            1.419599
   yz       -0.819606




                        10 triplet b2 excitation


 Total energy:                           -436.0922062264395    

 Excitation energy:                      0.3383036833604458    

 Excitation energy / eV:                  9.205715553691327    

 Excitation energy / nm:                  134.6818107547901    

 Excitation energy / cm^(-1):             74249.07596998358    


 Oscillator strength:

    velocity representation:             0.4870070187031656E-02

    length representation:               0.3786310686409223E-02

    mixed representation:                0.4294135395247910E-02


 Rotatory strength:

    velocity representation:              0.000000000000000    

    velocity rep. / 10^(-40)erg*cm^3:     0.000000000000000    

    length representation:                0.000000000000000    

    length rep. / 10^(-40)erg*cm^3:       0.000000000000000    


 Dominant contributions:

    occ. orbital  energy / eV   virt. orbital  energy / eV   |coeff.|^2*100
      14 a1        -13.25           4 b2         -2.55           73.1
       9 b1        -12.74           3 a2         -0.99           16.4
      14 a1        -13.25           5 b2         -0.17            2.8
 

 S^2 expectation value:                     2.00000000


 Change of electron number:

             0.000000


 Electric transition dipole moment (velocity rep.):

    x        0.000000        Norm:                  0.146947
    y       -0.146947
    z        0.000000        Norm / debye:          0.373504


 Electric transition dipole moment (length rep.):

    x        0.000000        Norm:                  0.129569
    y       -0.129569
    z        0.000000        Norm / debye:          0.329333


 Magnetic transition dipole moment / i:

    x        0.003253        Norm:                  0.003253
    y        0.000000
    z        0.000000        Norm / Bohr mag.:      0.891448


 Electric quadrupole transition moment:

   xx        0.000000
   yy        0.000000        1/3*trace:             0.000000
   zz        0.000000
   xy        0.000000
   xz        0.000000        Anisotropy:            2.289289
   yz       -1.321722


    ------------------------------------------------------------------------
         total  cpu-time : 30 minutes and 19 seconds
         total wall-time : 30 minutes and 20 seconds
    ------------------------------------------------------------------------


   ****  escf : all done  ****


    2024-02-13 10:00:08.258 

