 operating system is UNIX !
 hostname is         elgar

 dscf (elgar) : TURBOMOLE V7.0( 19819 ) 16 Jun 2015 at 11:29:46
 Copyright (C) 2015 TURBOMOLE GmbH, Karlsruhe


    2024-02-12 14:24:20.710 



                             d s c f - program

                   idea & directorship : reinhart ahlrichs
                   program development : marco haeser
                                         michael baer
                           dft version : oliver treutler


                          quantum chemistry group
                          universitaet  karlsruhe
                                  germany




                          References             
                                                 
          TURBOMOLE:                             
              R. Ahlrichs, M. Baer, M. Haeser, H. Horn, and
              C. Koelmel
              Electronic structure calculations on workstation
              computers: the program system TURBOMOLE
              Chem. Phys. Lett. 162: 165 (1989)
          Density Functional:                              
              O. Treutler and R. Ahlrichs                      
              Efficient Molecular Numerical Integration Schemes
              J. Chem. Phys. 102: 346 (1995)                   
          Parallel Version:                                
              Performance of parallel TURBOMOLE for Density    
              Functional Calculations                          
              M. v. Arnim and R. Ahlrichs                      
              J. Comp. Chem. 19: 1746 (1998)                   
                                         




              +--------------------------------------------------+
              | Atomic coordinate, charge and isotop information |
              +--------------------------------------------------+

                    atomic coordinates            atom    charge  isotop
          0.00000000    0.00000000    1.60347294    c      6.000     0
          0.00000000    0.00000000   -3.59896024    c      6.000     0
          2.29878830    0.00000000    0.33655082    c      6.000     0
         -2.29878830    0.00000000    0.33655082    c      6.000     0
         -2.28322845    0.00000000   -2.28896805    c      6.000     0
          2.28322845    0.00000000   -2.28896805    c      6.000     0
          4.04004563    0.00000000    1.40275882    h      1.000     0
         -4.04004563    0.00000000    1.40275882    h      1.000     0
         -4.05541522    0.00000000   -3.31160563    h      1.000     0
          4.05541522    0.00000000   -3.31160563    h      1.000     0
          0.00000000    0.00000000   -5.64617213    h      1.000     0
          0.00000000    0.00000000    4.40465228    n      7.000     0
          2.04887035    0.00000000    5.47976761    o      8.000     0
         -2.04887035    0.00000000    5.47976761    o      8.000     0
 
       center of nuclear mass  :    0.00000000    0.00000000    1.27226729
       center of nuclear charge:    0.00000000    0.00000000    1.15067268

              +--------------------------------------------------+
              |               basis set information              |
              +--------------------------------------------------+

              we will work with the 1s 3p 5d 7f 9g ... basis set
              ...i.e. with spherical basis functions...

   type   atoms  prim   cont   basis
   ---------------------------------------------------------------------------
    c        6     46     31   def2-TZVP   [5s3p2d1f|11s6p2d1f]
    h        5      8      6   def2-TZVP   [3s1p|5s1p]
    n        1     46     31   def2-TZVP   [5s3p2d1f|11s6p2d1f]
    o        2     46     31   def2-TZVP   [5s3p2d1f|11s6p2d1f]
   ---------------------------------------------------------------------------
   total:   14    454    309
   ---------------------------------------------------------------------------

   total number of primitive shells          :   66
   total number of contracted shells         :  119
   total number of cartesian basis functions :  354
   total number of SCF-basis functions       :  309


 integral neglect threshold       :  0.94E-11
 integral storage threshold THIZE :  0.10E-04
 integral storage threshold THIME :         5


 DENSITY CONVERGENCE CHECK SWITCHED ON !
 SCF CONVERGENCE IF RMS(delta[D]) <     0.1000000000E-06


 symmetry group of the molecule :   c2v

 the group has the following generators :
   c2(z)
   mirror plane sigma(xz)

    4 symmetry operations found

 there are 4 real representations :   a1   a2   b1   b2  

 maximum number of shells which are related by symmetry :  2


    mo occupation :
   irrep   mo's   occupied
    a1     119       16
    a2      41        2
    b1      95       11
    b2      54        3
 
 number of basis functions   :          309
 number of occupied orbitals :           32
 

          ------------------------
          nuclear repulsion energy  :   412.540315295    
          ------------------------

 
          -----------------
          -S,T+V- integrals
          -----------------

 1e-integrals will be neglected if expon. factor < 0.944057E-12
 
   Difference densities algorithm switched on.
   The maximal number of linear combinations of
   difference densities is          20 .

 automatic virtual orbital shift switched on 
      shift if e(lumo)-e(homo) < 0.10000000    


 DIIS switched on: error vector is FDS-SDF
 Max. Iterations for DIIS is     :   5
 DIIS matrix (see manual) 
    Scaling factor of diagonals  :  1.200
    threshold for scaling factor :  0.000

 scf convergence criterion : increment of total energy < .1000000D-06
                  and increment of one-electron energy < .1000000D-03


 <geterg> : there is no data group $energy 

  MOs are in ASCII format !


 reading orbital data $scfmo  from file mos . 

 orbital characterization : expanded
 
 mo provided and orthogonalized by Cholesky decomposition

 DSCF restart information will be dumped onto file mos

 
                                              current damping :  0.600
 ITERATION  ENERGY          1e-ENERGY        2e-ENERGY     RMS[dD(SAO)]   TOL
   1  -432.52478446071    -1395.1006560     550.03555620    0.000D+00 0.942D-11
          max. resid. norm for Fia-block=  4.755D-01 for orbital      7b1        
          max. resid. fock norm         =  1.588D+01 for orbital     77a1        
          Delta Eig. =   748.4331354445 eV 
 
                                              current damping :  0.550
 ITERATION  ENERGY          1e-ENERGY        2e-ENERGY     RMS[dD(SAO)]   TOL
   2  -434.02262609247    -1404.3899536     557.82701226    0.327D-01 0.758D-11
          Norm of current diis error:  2.7890    
          max. resid. norm for Fia-block=  1.527D-01 for orbital      7a1        
          max. resid. fock norm         =  3.104D-01 for orbital     67a1        
          Delta Eig. =   282.4809415996 eV 
 
                                              current damping :  0.450
 ITERATION  ENERGY          1e-ENERGY        2e-ENERGY     RMS[dD(SAO)]   TOL
   3  -434.25713311381    -1407.2639601     560.46651172    0.150D-01 0.497D-11
          Norm of current diis error:  1.2642    
          max. resid. norm for Fia-block=  6.863D-02 for orbital      7a1        
          max. resid. fock norm         =  7.807D-02 for orbital     28a1        
          Delta Eig. =   108.6096615749 eV 
 
                                              current damping :  0.350
 ITERATION  ENERGY          1e-ENERGY        2e-ENERGY     RMS[dD(SAO)]   TOL
   4  -434.32383732160    -1408.3044524     561.44029983    0.665D-02 0.418D-11
          Norm of current diis error: 0.47079    
          max. resid. norm for Fia-block=  2.929D-02 for orbital      7a1        
          max. resid. fock norm         =  3.224D-02 for orbital      7a1        
          Delta Eig. =    35.7218904381 eV 
 
                                              current damping :  0.200
 ITERATION  ENERGY          1e-ENERGY        2e-ENERGY     RMS[dD(SAO)]   TOL
   5  -434.33621378464    -1408.7614398     561.88491067    0.282D-02 0.375D-11
          Norm of current diis error: 0.15504    
          max. resid. norm for Fia-block=  1.207D-02 for orbital      3b2        
          max. resid. fock norm         =  1.264D-02 for orbital      3b2        
 mo-orthogonalization: Cholesky decomposition
          Delta Eig. =    10.4782234590 eV 
 
                                              current damping :  0.100
 ITERATION  ENERGY          1e-ENERGY        2e-ENERGY     RMS[dD(SAO)]   TOL
   6  -434.33821251513    -1408.9075559     562.02902811    0.108D-02 0.347D-11
          Norm of current diis error: 0.41865E-01
          max. resid. norm for Fia-block=  4.527D-03 for orbital      3b2        
          max. resid. fock norm         =  4.618D-03 for orbital      3b2        
          Delta Eig. =     1.8617262687 eV 
 
                                              current damping :  0.100
 ITERATION  ENERGY          1e-ENERGY        2e-ENERGY     RMS[dD(SAO)]   TOL
   7  -434.33844080464    -1408.9347691     562.05601296    0.330D-03 0.330D-11
          Norm of current diis error: 0.14805E-01
          max. resid. norm for Fia-block=  1.809D-03 for orbital      3b2        
          max. resid. fock norm         =  1.986D-03 for orbital      3b2        
          Delta Eig. =     0.1946190777 eV 
 
                                              current damping :  0.100
 ITERATION  ENERGY          1e-ENERGY        2e-ENERGY     RMS[dD(SAO)]   TOL
   8  -434.33847016351    -1408.9442924     562.06550691    0.111D-03 0.320D-11
          Norm of current diis error: 0.70573E-02
          max. resid. norm for Fia-block=  7.083D-04 for orbital      3b2        
          max. resid. fock norm         =  8.440D-04 for orbital      4b2        
          Delta Eig. =     0.0549050212 eV 
 
                                              current damping :  0.150
 ITERATION  ENERGY          1e-ENERGY        2e-ENERGY     RMS[dD(SAO)]   TOL
   9  -434.33847562404    -1408.9417111     562.06292021    0.456D-04 0.312D-11
          Norm of current diis error: 0.25553E-02
          max. resid. norm for Fia-block=  3.493D-04 for orbital      3b2        
          max. resid. fock norm         =  3.716D-04 for orbital      3b2        
          Delta Eig. =     0.0082035992 eV 
 
                                              current damping :  0.200
 ITERATION  ENERGY          1e-ENERGY        2e-ENERGY     RMS[dD(SAO)]   TOL
  10  -434.33847647496    -1408.9430075     562.06421573    0.202D-04 0.305D-11
          Norm of current diis error: 0.70452E-03
          max. resid. norm for Fia-block=  1.052D-04 for orbital     16a1        
          max. resid. fock norm         =  1.064D-04 for orbital     16a1        
 mo-orthogonalization: Cholesky decomposition
          Delta Eig. =     0.0010212988 eV 
 
                                              current damping :  0.250
 ITERATION  ENERGY          1e-ENERGY        2e-ENERGY     RMS[dD(SAO)]   TOL
  11  -434.33847655472    -1408.9427366     562.06394470    0.571D-05 0.298D-11
          Norm of current diis error: 0.24509E-03
          max. resid. norm for Fia-block=  3.607D-05 for orbital      3b2        
          max. resid. fock norm         =  3.662D-05 for orbital      3b2        
          Delta Eig. =     0.0006785583 eV 
 
                                              current damping :  0.300
 ITERATION  ENERGY          1e-ENERGY        2e-ENERGY     RMS[dD(SAO)]   TOL
  12  -434.33847656422    -1408.9428242     562.06403230    0.188D-05 0.292D-11
          Norm of current diis error: 0.97444E-04
          max. resid. norm for Fia-block=  1.485D-05 for orbital     16a1        
          max. resid. fock norm         =  1.517D-05 for orbital     16a1        
          Delta Eig. =     0.0001301679 eV 
 
                                              current damping :  0.350
 ITERATION  ENERGY          1e-ENERGY        2e-ENERGY     RMS[dD(SAO)]   TOL
  13  -434.33847656536    -1408.9427871     562.06399521    0.617D-06 0.286D-11
          Norm of current diis error: 0.42034E-04
          max. resid. norm for Fia-block=  6.141D-06 for orbital      7b1        
          max. resid. fock norm         =  6.180D-06 for orbital      7b1        
          Delta Eig. =     0.0001099228 eV 

 ENERGY & DENSITY CONVERGED !

 
                                              current damping :  0.400
 ITERATION  ENERGY          1e-ENERGY        2e-ENERGY     RMS[dD(SAO)]   TOL
  14  -434.33847656547    -1408.9427927     562.06400082    0.275D-06 0.278D-11
          max. resid. norm for Fia-block=  1.988D-06 for orbital      7b1        
          max. resid. fock norm         =  5.313D-06 for orbital     43a1        

 convergence criteria satisfied after 14 iterations


                  ------------------------------------------ 
                 |  total energy      =   -434.33847656547  |
                  ------------------------------------------ 
                 :  kinetic energy    =    433.69918774313  :
                 :  potential energy  =   -868.03766430860  :
                 :  virial theorem    =      1.99852813219  :
                 :  wavefunction norm =      1.00000000000  :
                  .......................................... 


 <geterg> : there is no data group $energy 


 orbitals $scfmo  will be written to file mos

    irrep                 12a1        13a1        14a1        15a1        16a1  
 eigenvalues H         -0.78132    -0.70921    -0.65151    -0.55648    -0.49439
            eV         -21.2611    -19.2988    -17.7287    -15.1426    -13.4532
 occupation              2.0000      2.0000      2.0000      2.0000      2.0000 

    irrep                 17a1        18a1        19a1        20a1        21a1  
 eigenvalues H          0.13983     0.17653     0.19297     0.21449     0.27431
            eV           3.8051      4.8037      5.2511      5.8365      7.4645

    irrep                  1a2         2a2         3a2         4a2         5a2  
 eigenvalues H         -0.45470    -0.37037     0.09535     0.35282     0.45112
            eV         -12.3730    -10.0784      2.5946      9.6007     12.2757
 occupation              2.0000      2.0000 

    irrep                  6a2         7a2         8a2         9a2        10a2  
 eigenvalues H          0.67278     0.81490     0.90674     1.00419     1.20492
            eV          18.3074     22.1747     24.6739     27.3257     32.7877

    irrep                  7b1         8b1         9b1        10b1        11b1  
 eigenvalues H         -0.72725    -0.65784    -0.62587    -0.53234    -0.49431
            eV         -19.7897    -17.9009    -17.0309    -14.4858    -13.4508
 occupation              2.0000      2.0000      2.0000      2.0000      2.0000 

    irrep                 12b1        13b1        14b1        15b1        16b1  
 eigenvalues H          0.16580     0.21026     0.29833     0.31837     0.35842
            eV           4.5118      5.7216      8.1181      8.6635      9.7531

    irrep                  1b2         2b2         3b2         4b2         5b2  
 eigenvalues H         -0.71854    -0.53904    -0.37890     0.04092     0.14864
            eV         -19.5525    -14.6680    -10.3104      1.1134      4.0448
 occupation              2.0000      2.0000      2.0000 

    irrep                  6b2         7b2         8b2         9b2        10b2  
 eigenvalues H          0.29704     0.31504     0.36435     0.45283     0.53545
            eV           8.0828      8.5728      9.9144     12.3222     14.5706
 
 
 
 
 ==============================================================================
                           electrostatic moments
 ==============================================================================

 reference point for electrostatic moments:    0.00000   0.00000   0.00000

 
              nuc           elec       ->  total
 ------------------------------------------------------------------------------
                          charge      
 ------------------------------------------------------------------------------
          64.000000     -64.000000      -0.000000
 
 ------------------------------------------------------------------------------
                       dipole moment  
 ------------------------------------------------------------------------------
   x       0.000000      -0.000000      -0.000000
   y       0.000000       0.000000       0.000000
   z      73.643051     -75.698453      -2.055402
 
   | dipole moment | =     2.0554 a.u. =     5.2243 debye 
 
 ------------------------------------------------------------------------------
                     quadrupole moment
 ------------------------------------------------------------------------------
  xx     258.673356    -294.184832     -35.511476
  yy       0.000000     -40.083515     -40.083515
  zz     831.374104    -877.844662     -46.470558
  xy       0.000000       0.000000       0.000000
  xz       0.000000      -0.000000      -0.000000
  yz       0.000000       0.000000       0.000000
 
     1/3  trace=     -40.688516
     anisotropy=       9.534132
 
 ==============================================================================
 
 


    ------------------------------------------------------------------------
         total  cpu-time :  2 minutes and 30 seconds
         total wall-time :  2 minutes and 30 seconds
    ------------------------------------------------------------------------


   ****  dscf : all done  ****


    2024-02-12 14:26:50.861 

