 operating system is UNIX !
 hostname is         elgar

 escf (elgar) : TURBOMOLE V7.0( 19819 ) 16 Jun 2015 at 11:29:46
 Copyright (C) 2015 TURBOMOLE GmbH, Karlsruhe


    2024-02-12 14:39:16.562 




                                e s c f

                       quantum chemistry group
                       university of karlsruhe
                               germany


          integral direct evaluation of 

                    * excitation energies and transition moments 
                    * dynamic response properties 
                    * stabilities



          references (see also programs dscf and ridft) 

          implementation and benchmarks (review) 
          F. Furche and D. Rappoport,  
          "Density functional methods for excited states: 
          equilibrium structure and electronic spectra",
          ch. III of "Computational Photochemistry", ed. by 
          M. Olivucci, vol. 16 of "Theoretical and Computational 
          Chemistry", Elsevier, Amsterdam, 2005.

          two-component TDDFT with spin-orbit coupling 
          M. Kuehn and F. Weigend, 
          J. Chem. Theory Comput. 9 (2013), 5341.

          GW quasi particle energies
          M. J. van Setten, F. Weigend, and F. Evers,
          J. Chem. Theory Comput. 9 (2013), 232.

          Current-density dependent meta-GGA Linear Response
          J. E. Bates and F. Furche, 
          J. Chem. Phys. 137 (2012), 164105.

          spin-flip method 
          M. Kuehn and F. Weigend, 
          Chem. Phys. Chem. 12 (2011), 3331.

          RI-J method 
          R. Bauernschmitt, M. Haeser, O. Treutler, and R. Ahlrichs,
          Chem. Phys. Lett. 264 (1997), 573.

          density functional implementation               
          R. Bauernschmitt and R. Ahlrichs,
          Chem. Phys. Lett. 256 (1996), 454.
          R. Bauernschmitt and R. Ahlrichs,
          J. Chem. Phys. 104 (1996), 9047.

          UHF extension (RPA and CIS)
          C. Ochsenfeld, J. Gauss, and R. Ahlrichs, 
          J. Chem. Phys. 103 (1995), 7401.

          integral direct algorithm                 
          H. Weiss, R. Ahlrichs, and M. Haeser, 
          J. Chem. Phys. 99 (1993), 1262.
                                     




              +--------------------------------------------------+
              | Atomic coordinate, charge and isotop information |
              +--------------------------------------------------+

                    atomic coordinates            atom    charge  isotop
          0.00000000    0.00000000    1.60347294    c      6.000     0
          0.00000000    0.00000000   -3.59896024    c      6.000     0
          2.29878830    0.00000000    0.33655082    c      6.000     0
         -2.29878830    0.00000000    0.33655082    c      6.000     0
         -2.28322845    0.00000000   -2.28896805    c      6.000     0
          2.28322845    0.00000000   -2.28896805    c      6.000     0
          4.04004563    0.00000000    1.40275882    h      1.000     0
         -4.04004563    0.00000000    1.40275882    h      1.000     0
         -4.05541522    0.00000000   -3.31160563    h      1.000     0
          4.05541522    0.00000000   -3.31160563    h      1.000     0
          0.00000000    0.00000000   -5.64617213    h      1.000     0
          0.00000000    0.00000000    4.40465228    n      7.000     0
          2.04887035    0.00000000    5.47976761    o      8.000     0
         -2.04887035    0.00000000    5.47976761    o      8.000     0
 
       center of nuclear mass  :    0.00000000    0.00000000    1.27226729
       center of nuclear charge:    0.00000000    0.00000000    1.15067268

              +--------------------------------------------------+
              |               basis set information              |
              +--------------------------------------------------+

              we will work with the 1s 3p 5d 7f 9g ... basis set
              ...i.e. with spherical basis functions...

   type   atoms  prim   cont   basis
   ---------------------------------------------------------------------------
    c        6     46     31   def2-TZVP   [5s3p2d1f|11s6p2d1f]
    h        5      8      6   def2-TZVP   [3s1p|5s1p]
    n        1     46     31   def2-TZVP   [5s3p2d1f|11s6p2d1f]
    o        2     46     31   def2-TZVP   [5s3p2d1f|11s6p2d1f]
   ---------------------------------------------------------------------------
   total:   14    454    309
   ---------------------------------------------------------------------------

   total number of primitive shells          :   66
   total number of contracted shells         :  119
   total number of cartesian basis functions :  354
   total number of SCF-basis functions       :  309


 residuum convergence criterium   :  0.10E-04


 integral neglect threshold       :  0.94E-11
 integral storage threshold THIZE :  0.10E-04
 integral storage threshold THIME :         5

 CI SINGLES TRIPLET-CALCULATION (TAMM-DANCOFF-APPROXIMATION)

 symmetry group of the molecule :   c2v

 the group has the following generators :
   c2(z)
   mirror plane sigma(xz)

    4 symmetry operations found

 there are 4 real representations :   a1   a2   b1   b2  

 maximum number of shells which are related by symmetry :  2

 IRREPs of excited states :   a1   a2   b1   b2  
 

 determining totally symmetric integral contributions 
    - equivalent to irreducible tensor elements - 
 which can be formed within each triple of representations :

             representation triple      contributions

              a1    a1    a1              1
              a1    a2    a2              1
              a1    b1    b1              1
              a1    b2    b2              1
              a2    a1    a2              1
              a2    a2    a1              1
              a2    b1    b2              1
              a2    b2    b1              1
              b1    a1    b1              1
              b1    a2    b2              1
              b1    b1    a1              1
              b1    b2    a2              1
              b2    a1    b2              1
              b2    a2    b1              1
              b2    b1    a2              1
              b2    b2    a1              1

    mo occupation :
   irrep   mo's   occupied
    a1     119       16
    a2      41        2
    b1      95       11
    b2      54        3
 
 number of basis functions   :          309
 number of occupied orbitals :           32
 

 biggest AO integral is expected to be     7.998976882
  MOs are in ASCII format !


 reading orbital data $scfmo  from file mos . 

 orbital characterization : scfconv=7
 
 all orbitals will be included in the transformation

 number of non-frozen orbitals          :   309
 number of non-frozen occupied orbitals :    32



 dimension of super-tensorspace: 1

          IRREP   tensor space dimension   number of roots

           a1             2803                  10
           a2             1643                  10
           b1             2696                  10
           b2             1722                  10

 maximum number of Davidson iterations set to   25


 machine precision: 2.22D-16


 logfile cist_a1   will be constructed

 logfile cist_a2   will be constructed

 logfile cist_b1   will be constructed

 logfile cist_b2   will be constructed


                       Block Davidson iteration


 total number of roots to be determined:  40


 maximum core memory set to   500 MB,
 corresponding to      515 vectors in CAO basis


 maximum number of simultaneously treated vectors (including degeneracy):       72


 Iteration IRREP Converged      Max. Euclidean
                 roots          residual norm

    1       a1       0        1.293430676333281D-01
            a2       0        1.524381017501017D-01
            b1       0        1.545269537692551D-01
            b2       0        1.495433631367679D-01
 
    2       a1       0        1.069575084776588D-01
            a2       0        5.362353601673346D-02
            b1       0        6.354393482339592D-02
            b2       0        6.858490685703722D-02
 
    3       a1       0        4.912843705836702D-02
            a2       0        4.237668621740737D-02
            b1       0        3.857391150100953D-02
            b2       0        4.041453595324209D-02
 
    4       a1       0        3.530313832611689D-02
            a2       0        4.349388965914863D-02
            b1       0        2.848906999988116D-02
            b2       0        3.514262539248150D-02
 
    5       a1       0        7.074036229359862D-02
            a2       0        7.631507327964503D-02
            b1       0        6.003019745796551D-02
            b2       0        4.007906926503671D-02
 
    6       a1       0        2.316573800088167D-02
            a2       0        2.371326574252870D-02
            b1       0        1.983144047452457D-02
            b2       0        2.546847796605874D-02
 
    7       a1       1        6.916177599209641D-03
            a2       0        5.567824229735723D-03
            b1       3        7.231125993988056D-03
            b2       0        3.040365210469525D-02
 
    8       a1       2        1.948028589507686D-03
            a2       2        1.058496244568273D-03
            b1       5        2.418535355931348D-03
            b2       1        7.103251076259773D-03
 
    9       a1       5        5.952248862902513D-04
            a2       5        2.013938538057429D-04
            b1       6        8.375729012958888D-04
            b2       7        1.364527526613177D-03
 
   10       a1       6        1.794406546954243D-04
            a2       6        3.432068148006470D-05
            b1       6        3.312018875020476D-04
            b2       7        2.754717794231000D-04
 
   11       a1       7        3.800977703181733D-05
            a2      10        9.590478133766107D-06
            b1       8        9.019467671692934D-05
            b2       7        5.451905883367656D-05
 
   12       a1      10        8.989241881753576D-06
            a2      10        9.590478133766107D-06
            b1       9        2.029703848238185D-05
            b2       9        1.053968851018394D-05
 
   13       a1      10        8.989241881753576D-06
            a2      10        9.590478133766107D-06
            b1      10        9.040577143741308D-06
            b2      10        9.623395679753195D-06
 

 converged!

 Eigenpairs written on logfile cist_a1  

 Eigenpairs written on logfile cist_a2  

 Eigenpairs written on logfile cist_b1  

 Eigenpairs written on logfile cist_b2  



 IRREP   Vector     Eigenvalue           Euclidean residual norm

  a1        1    1.212334352258189D-01    7.194909732431617D-06
            2    1.744044598542576D-01    1.882850888359032D-06
            3    2.484513105351560D-01    1.707540010360110D-06
            4    2.982103479482693D-01    4.107403930178345D-06
            5    3.353403746147151D-01    3.389532087444723D-06
            6    4.011597538937484D-01    8.989241881753576D-06
            7    4.167760549734469D-01    6.266431414620564D-06
            8    4.245947429090585D-01    3.302994710621826D-06
            9    4.326188140748617D-01    8.445151389559962D-06
           10    4.340971443057903D-01    3.236233133585721D-06

  a2        1    1.642014997765173D-01    1.541377687124578D-06
            2    3.132555101548729D-01    9.590478133766107D-06
            3    3.140483598974299D-01    5.978067399417157D-06
            4    3.462889205272851D-01    1.977612955125937D-06
            5    3.477732743449734D-01    2.444420668542350D-06
            6    3.564857188343510D-01    6.567839499486273D-06
            7    3.699019412948155D-01    4.215346863179523D-06
            8    3.769703794302829D-01    6.727460015307274D-06
            9    3.849337446764338D-01    3.740307622728868D-06
           10    4.003784560144883D-01    6.092983313747457D-06

  b1        1    1.062965344261950D-01    9.011257590944787D-06
            2    1.646505057635073D-01    3.799873436670496D-06
            3    2.080911010159964D-01    2.943371640902980D-06
            4    2.793683044194204D-01    2.269295757385319D-06
            5    3.462092549558290D-01    5.413528765943178D-06
            6    4.057507841599762D-01    4.866049914307363D-06
            7    4.147632053668443D-01    3.862509937086958D-06
            8    4.225780167002651D-01    9.040577143741308D-06
            9    4.352747306083150D-01    4.084544432572340D-06
           10    4.488975879362221D-01    5.832924848837727D-06

  b2        1    1.726539440099619D-01    5.051371098102883D-06
            2    3.205214734204074D-01    2.171561518567538D-06
            3    3.283916475258903D-01    8.943404947503168D-06
            4    3.366845819413140D-01    8.212666301426201D-06
            5    3.463482827830472D-01    8.256672498779180D-06
            6    3.499182498444098D-01    9.623395679753195D-06
            7    3.693908496626399D-01    6.742569060972098D-06
            8    3.803227750738086D-01    4.681674261897605D-06
            9    3.926324475750781D-01    2.180551067105749D-06
           10    3.989301764434303D-01    5.710929301919681D-06
 




                    Selection rules for point group c2v 


 Subduction with respect to c2v :

    Polar vector representation: a1, b1, b2                  

    Axial vector representation: a2, b1, b2                  

    Symmetric second rank tensor representation: a1, a2, b1, b2              




                            Ground state


 Total energy:                           -434.3384765655000    

 Charge:

               elec          nuc         total

           -64.000000    64.000000    -0.000000


 Electric dipole moment:

               elec          nuc         total   

    x        0.000000     0.000000     0.000000    Norm:              2.055402
    y        0.000000     0.000000     0.000000
    z      -75.698453    73.643051    -2.055402    Norm / debye:      5.224350


 Electric quadrupole moment:

               elec          nuc         total   

   xx     -294.184832   258.673356   -35.511476
   yy      -40.083515     0.000000   -40.083515    1/3*trace:       -40.688516
   zz     -877.844662   831.374104   -46.470558
   xy        0.000000     0.000000     0.000000
   xz        0.000000     0.000000     0.000000    Anisotropy:        9.534132
   yz        0.000000     0.000000     0.000000



 ==============================================================================

                              I R R E P   a1  

 ==============================================================================


 Excitation is electric dipole allowed

 Excitation is magnetic dipole forbidden

 Excitation is electric quadrupole allowed




                         1 triplet a1 excitation


 Total energy:                           -434.2172431302742    

 Excitation energy:                      0.1212334352258189    

 Excitation energy / eV:                  3.298931034979791    

 Excitation energy / nm:                  375.8315729908184    

 Excitation energy / cm^(-1):             26607.66342467897    


 Oscillator strength:

    velocity representation:             0.4978131525029524E-01

    length representation:               0.2873899243520222E-01

    mixed representation:                0.3782413042480490E-01


 Rotatory strength:

    velocity representation:              0.000000000000000    

    velocity rep. / 10^(-40)erg*cm^3:     0.000000000000000    

    length representation:                0.000000000000000    

    length rep. / 10^(-40)erg*cm^3:       0.000000000000000    


 Dominant contributions:

    occ. orbital  energy / eV   virt. orbital  energy / eV   |coeff.|^2*100
       3 b2        -10.31           4 b2          1.11           47.5
       2 a2        -10.08           3 a2          2.59           34.0
       3 b2        -10.31           5 b2          4.04            8.4
       2 b2        -14.67           6 b2          8.08            2.2
 

 S^2 expectation value:                     2.00000000


 Change of electron number:

             0.000000


 Electric transition dipole moment (velocity rep.):

    x        0.000000        Norm:                  0.784816
    y        0.000000
    z       -0.784816        Norm / debye:          1.994817


 Electric transition dipole moment (length rep.):

    x        0.000000        Norm:                  0.596307
    y        0.000000
    z       -0.596307        Norm / debye:          1.515674


 Magnetic transition dipole moment / i:

    x        0.000000        Norm:                  0.000000
    y        0.000000
    z        0.000000        Norm / Bohr mag.:      0.000000


 Electric quadrupole transition moment:

   xx       -0.404254
   yy        0.212867        1/3*trace:            -0.600522
   zz       -1.610179
   xy        0.000000
   xz        0.000000        Anisotropy:            1.606019
   yz        0.000000




                         2 triplet a1 excitation


 Total energy:                           -434.1640721056457    

 Excitation energy:                      0.1744044598542576    

 Excitation energy / eV:                  4.745788850909063    

 Excitation energy / nm:                  261.2510752194948    

 Excitation energy / cm^(-1):             38277.35441894615    


 Oscillator strength:

    velocity representation:              1.591604688503007    

    length representation:                1.152532778645801    

    mixed representation:                 1.354391588184915    


 Rotatory strength:

    velocity representation:              0.000000000000000    

    velocity rep. / 10^(-40)erg*cm^3:     0.000000000000000    

    length representation:                0.000000000000000    

    length rep. / 10^(-40)erg*cm^3:       0.000000000000000    


 Dominant contributions:

    occ. orbital  energy / eV   virt. orbital  energy / eV   |coeff.|^2*100
       2 a2        -10.08           3 a2          2.59           58.2
       3 b2        -10.31           4 b2          1.11           36.3
 

 S^2 expectation value:                     2.00000000


 Change of electron number:

             0.000000


 Electric transition dipole moment (velocity rep.):

    x        0.000000        Norm:                  3.699853
    y        0.000000
    z        3.699853        Norm / debye:          9.404159


 Electric transition dipole moment (length rep.):

    x        0.000000        Norm:                  3.148426
    y        0.000000
    z        3.148426        Norm / debye:          8.002561


 Magnetic transition dipole moment / i:

    x        0.000000        Norm:                  0.000000
    y        0.000000
    z        0.000000        Norm / Bohr mag.:      0.000000


 Electric quadrupole transition moment:

   xx        0.504401
   yy       -0.170811        1/3*trace:            -0.954292
   zz       -3.196466
   xy        0.000000
   xz        0.000000        Anisotropy:            3.413716
   yz        0.000000




                         3 triplet a1 excitation


 Total energy:                           -434.0900252549649    

 Excitation energy:                      0.2484513105351560    

 Excitation energy / eV:                  6.760707039927825    

 Excitation energy / nm:                  183.3894639632128    

 Excitation energy / cm^(-1):             54528.75962663439    


 Oscillator strength:

    velocity representation:             0.4212448284699425E-01

    length representation:               0.2644752283512401E-01

    mixed representation:                0.3337796012361555E-01


 Rotatory strength:

    velocity representation:              0.000000000000000    

    velocity rep. / 10^(-40)erg*cm^3:     0.000000000000000    

    length representation:                0.000000000000000    

    length rep. / 10^(-40)erg*cm^3:       0.000000000000000    


 Dominant contributions:

    occ. orbital  energy / eV   virt. orbital  energy / eV   |coeff.|^2*100
       3 b2        -10.31           5 b2          4.04           46.9
       2 b2        -14.67           4 b2          1.11           30.0
       1 b2        -19.55           4 b2          1.11            7.3
       1 b2        -19.55           5 b2          4.04            5.3
       3 b2        -10.31           4 b2          1.11            3.9
 

 S^2 expectation value:                     2.00000000


 Change of electron number:

             0.000000


 Electric transition dipole moment (velocity rep.):

    x        0.000000        Norm:                  0.504304
    y        0.000000
    z        0.504304        Norm / debye:          1.281822


 Electric transition dipole moment (length rep.):

    x        0.000000        Norm:                  0.399593
    y        0.000000
    z        0.399593        Norm / debye:          1.015671


 Magnetic transition dipole moment / i:

    x        0.000000        Norm:                  0.000000
    y        0.000000
    z        0.000000        Norm / Bohr mag.:      0.000000


 Electric quadrupole transition moment:

   xx       -1.169890
   yy       -0.214349        1/3*trace:             3.510217
   zz       11.914889
   xy        0.000000
   xz        0.000000        Anisotropy:           12.634139
   yz        0.000000




                         4 triplet a1 excitation


 Total energy:                           -434.0402662175517    

 Excitation energy:                      0.2982103479482693    

 Excitation energy / eV:                  8.114719920013902    

 Excitation energy / nm:                  152.7893078609864    

 Excitation energy / cm^(-1):             65449.60598686490    


 Oscillator strength:

    velocity representation:             0.4242442451567545E-01

    length representation:               0.2093183112144689E-01

    mixed representation:                0.2979967935040057E-01


 Rotatory strength:

    velocity representation:              0.000000000000000    

    velocity rep. / 10^(-40)erg*cm^3:     0.000000000000000    

    length representation:                0.000000000000000    

    length rep. / 10^(-40)erg*cm^3:       0.000000000000000    


 Dominant contributions:

    occ. orbital  energy / eV   virt. orbital  energy / eV   |coeff.|^2*100
       2 b2        -14.67           4 b2          1.11           24.0
       2 b2        -14.67           5 b2          4.04           22.8
       1 b2        -19.55           4 b2          1.11           16.6
       3 b2        -10.31           6 b2          8.08           13.9
       3 b2        -10.31           5 b2          4.04            6.0
       1 b2        -19.55           5 b2          4.04            4.4
       3 b2        -10.31           7 b2          8.57            3.8
 

 S^2 expectation value:                     2.00000000


 Change of electron number:

             0.000000


 Electric transition dipole moment (velocity rep.):

    x        0.000000        Norm:                  0.461947
    y        0.000000
    z       -0.461947        Norm / debye:          1.174161


 Electric transition dipole moment (length rep.):

    x        0.000000        Norm:                  0.324480
    y        0.000000
    z       -0.324480        Norm / debye:          0.824752


 Magnetic transition dipole moment / i:

    x        0.000000        Norm:                  0.000000
    y        0.000000
    z        0.000000        Norm / Bohr mag.:      0.000000


 Electric quadrupole transition moment:

   xx       -5.888436
   yy       -0.051000        1/3*trace:            -2.555956
   zz       -1.728431
   xy        0.000000
   xz        0.000000        Anisotropy:            5.205529
   yz        0.000000




                         5 triplet a1 excitation


 Total energy:                           -434.0031361908853    

 Excitation energy:                      0.3353403746147151    

 Excitation energy / eV:                  9.125079785437224    

 Excitation energy / nm:                  135.8719561053435    

 Excitation energy / cm^(-1):             73598.70487736426    


 Oscillator strength:

    velocity representation:             0.3015525701152253E-01

    length representation:               0.7754923820241007E-02

    mixed representation:                0.1529221111887178E-01


 Rotatory strength:

    velocity representation:              0.000000000000000    

    velocity rep. / 10^(-40)erg*cm^3:     0.000000000000000    

    length representation:                0.000000000000000    

    length rep. / 10^(-40)erg*cm^3:       0.000000000000000    


 Dominant contributions:

    occ. orbital  energy / eV   virt. orbital  energy / eV   |coeff.|^2*100
       1 b2        -19.55           4 b2          1.11           32.3
       3 b2        -10.31           5 b2          4.04           28.2
       1 b2        -19.55           5 b2          4.04           20.6
       3 b2        -10.31           4 b2          1.11            7.0
       2 b2        -14.67           4 b2          1.11            6.0
 

 S^2 expectation value:                     2.00000000


 Change of electron number:

            -0.000000


 Electric transition dipole moment (velocity rep.):

    x        0.000000        Norm:                  0.367269
    y        0.000000
    z       -0.367269        Norm / debye:          0.933512


 Electric transition dipole moment (length rep.):

    x        0.000000        Norm:                  0.186248
    y        0.000000
    z       -0.186248        Norm / debye:          0.473399


 Magnetic transition dipole moment / i:

    x        0.000000        Norm:                  0.000000
    y        0.000000
    z        0.000000        Norm / Bohr mag.:      0.000000


 Electric quadrupole transition moment:

   xx       -1.197624
   yy        0.243697        1/3*trace:            -1.054441
   zz       -2.209396
   xy        0.000000
   xz        0.000000        Anisotropy:            2.135270
   yz        0.000000




                         6 triplet a1 excitation


 Total energy:                           -433.9373168116063    

 Excitation energy:                      0.4011597538937484    

 Excitation energy / eV:                  10.91611699066249    

 Excitation energy / nm:                  113.5790722218559    

 Excitation energy / cm^(-1):             88044.38883753332    


 Oscillator strength:

    velocity representation:             0.1300163086609865E-01

    length representation:               0.1496333462668110E-01

    mixed representation:                0.1394803761616736E-01


 Rotatory strength:

    velocity representation:              0.000000000000000    

    velocity rep. / 10^(-40)erg*cm^3:     0.000000000000000    

    length representation:                0.000000000000000    

    length rep. / 10^(-40)erg*cm^3:       0.000000000000000    


 Dominant contributions:

    occ. orbital  energy / eV   virt. orbital  energy / eV   |coeff.|^2*100
       1 a2        -12.37           3 a2          2.59           98.0
 

 S^2 expectation value:                     2.00000000


 Change of electron number:

            -0.000000


 Electric transition dipole moment (velocity rep.):

    x        0.000000        Norm:                  0.220488
    y        0.000000
    z        0.220488        Norm / debye:          0.560430


 Electric transition dipole moment (length rep.):

    x        0.000000        Norm:                  0.236538
    y        0.000000
    z        0.236538        Norm / debye:          0.601224


 Magnetic transition dipole moment / i:

    x        0.000000        Norm:                  0.000000
    y        0.000000
    z        0.000000        Norm / Bohr mag.:      0.000000


 Electric quadrupole transition moment:

   xx       -0.641951
   yy       -0.341122        1/3*trace:             0.144298
   zz        1.415966
   xy        0.000000
   xz        0.000000        Anisotropy:            1.925211
   yz        0.000000




                         7 triplet a1 excitation


 Total energy:                           -433.9217005105265    

 Excitation energy:                      0.4167760549734469    

 Excitation energy / eV:                  11.34105834605216    

 Excitation energy / nm:                  109.3233455144223    

 Excitation energy / cm^(-1):             91471.77074990017    


 Oscillator strength:

    velocity representation:             0.2144169278211122E-01

    length representation:               0.1567495736574433E-01

    mixed representation:                0.1833296539594676E-01


 Rotatory strength:

    velocity representation:              0.000000000000000    

    velocity rep. / 10^(-40)erg*cm^3:     0.000000000000000    

    length representation:                0.000000000000000    

    length rep. / 10^(-40)erg*cm^3:       0.000000000000000    


 Dominant contributions:

    occ. orbital  energy / eV   virt. orbital  energy / eV   |coeff.|^2*100
      15 a1        -15.14          17 a1          3.81           30.1
      16 a1        -13.45          17 a1          3.81           14.0
      10 b1        -14.49          12 b1          4.51            8.4
      15 a1        -15.14          18 a1          4.80            7.2
       9 b1        -17.03          12 b1          4.51            3.4
      16 a1        -13.45          23 a1          9.77            2.9
      14 a1        -17.73          17 a1          3.81            2.8
      16 a1        -13.45          22 a1          8.37            2.4
      13 a1        -19.30          17 a1          3.81            2.4
      13 a1        -19.30          18 a1          4.80            2.0
      14 a1        -17.73          19 a1          5.25            1.4
      16 a1        -13.45          18 a1          4.80            1.3
      15 a1        -15.14          29 a1         14.79            1.2
       2 b2        -14.67           4 b2          1.11            1.0
      13 a1        -19.30          19 a1          5.25            0.9
      15 a1        -15.14          25 a1         11.47            0.9
      16 a1        -13.45          24 a1         10.40            0.8
      11 b1        -13.45          17 b1         11.12            0.7
      10 b1        -14.49          13 b1          5.72            0.7
       3 b2        -10.31           6 b2          8.08            0.6
      11 a1        -22.59          17 a1          3.81            0.5
      15 a1        -15.14          19 a1          5.25            0.5
      11 b1        -13.45          13 b1          5.72            0.5
      14 a1        -17.73          20 a1          5.84            0.4
      10 b1        -14.49          20 b1         14.86            0.4
      15 a1        -15.14          26 a1         12.55            0.4
      13 a1        -19.30          30 a1         15.40            0.4
       6 b1        -23.57          12 b1          4.51            0.3
       9 b1        -17.03          20 b1         14.86            0.3
      15 a1        -15.14          30 a1         15.40            0.3
       9 b1        -17.03          13 b1          5.72            0.3
      14 a1        -17.73          28 a1         14.21            0.3
      13 a1        -19.30          29 a1         14.79            0.3
 

 S^2 expectation value:                     2.00000000


 Change of electron number:

             0.000000


 Electric transition dipole moment (velocity rep.):

    x        0.000000        Norm:                  0.277795
    y        0.000000
    z       -0.277795        Norm / debye:          0.706089


 Electric transition dipole moment (length rep.):

    x        0.000000        Norm:                  0.237518
    y        0.000000
    z       -0.237518        Norm / debye:          0.603716


 Magnetic transition dipole moment / i:

    x        0.000000        Norm:                  0.000000
    y        0.000000
    z        0.000000        Norm / Bohr mag.:      0.000000


 Electric quadrupole transition moment:

   xx        5.952119
   yy        0.044823        1/3*trace:            -0.775980
   zz       -8.324882
   xy        0.000000
   xz        0.000000        Anisotropy:           12.425395
   yz        0.000000




                         8 triplet a1 excitation


 Total energy:                           -433.9138818225910    

 Excitation energy:                      0.4245947429090585    

 Excitation energy / eV:                  11.55381576099769    

 Excitation energy / nm:                  107.3102138472754    

 Excitation energy / cm^(-1):             93187.77439712707    


 Oscillator strength:

    velocity representation:              1.430805889537278    

    length representation:                1.058264994166598    

    mixed representation:                 1.230516877716312    


 Rotatory strength:

    velocity representation:              0.000000000000000    

    velocity rep. / 10^(-40)erg*cm^3:     0.000000000000000    

    length representation:                0.000000000000000    

    length rep. / 10^(-40)erg*cm^3:       0.000000000000000    


 Dominant contributions:

    occ. orbital  energy / eV   virt. orbital  energy / eV   |coeff.|^2*100
      15 a1        -15.14          17 a1          3.81           18.6
      16 a1        -13.45          18 a1          4.80           13.5
      16 a1        -13.45          23 a1          9.77            7.5
      16 a1        -13.45          22 a1          8.37            6.8
      16 a1        -13.45          17 a1          3.81            4.9
      11 b1        -13.45          13 b1          5.72            3.3
      15 a1        -15.14          19 a1          5.25            3.2
      16 a1        -13.45          24 a1         10.40            3.2
      13 a1        -19.30          18 a1          4.80            3.0
      11 b1        -13.45          17 b1         11.12            2.7
       3 b2        -10.31           6 b2          8.08            2.5
      15 a1        -15.14          18 a1          4.80            2.5
      16 a1        -13.45          19 a1          5.25            2.4
      16 a1        -13.45          21 a1          7.46            1.7
      13 a1        -19.30          17 a1          3.81            1.6
      10 b1        -14.49          12 b1          4.51            1.4
      16 a1        -13.45          32 a1         15.95            1.1
      14 a1        -17.73          17 a1          3.81            1.0
      11 b1        -13.45          12 b1          4.51            1.0
       2 b2        -14.67           4 b2          1.11            0.8
      11 b1        -13.45          16 b1          9.75            0.8
      11 b1        -13.45          25 b1         20.02            0.7
      16 a1        -13.45          36 a1         20.15            0.6
      15 a1        -15.14          20 a1          5.84            0.6
      15 a1        -15.14          30 a1         15.40            0.6
      15 a1        -15.14          29 a1         14.79            0.6
      15 a1        -15.14          25 a1         11.47            0.5
      16 a1        -13.45          26 a1         12.55            0.5
       3 b2        -10.31           7 b2          8.57            0.5
      13 a1        -19.30          30 a1         15.40            0.4
      15 a1        -15.14          28 a1         14.21            0.4
      16 a1        -13.45          20 a1          5.84            0.4
      11 b1        -13.45          21 b1         15.50            0.3
       3 b2        -10.31           5 b2          4.04            0.3
 

 S^2 expectation value:                     2.00000000


 Change of electron number:

             0.000000


 Electric transition dipole moment (velocity rep.):

    x        0.000000        Norm:                  2.248271
    y        0.000000
    z        2.248271        Norm / debye:          5.714578


 Electric transition dipole moment (length rep.):

    x        0.000000        Norm:                  1.933551
    y        0.000000
    z        1.933551        Norm / debye:          4.914633


 Magnetic transition dipole moment / i:

    x        0.000000        Norm:                  0.000000
    y        0.000000
    z        0.000000        Norm / Bohr mag.:      0.000000


 Electric quadrupole transition moment:

   xx        1.309101
   yy       -0.318075        1/3*trace:            -0.373236
   zz       -2.110734
   xy        0.000000
   xz        0.000000        Anisotropy:            2.962819
   yz        0.000000




                         9 triplet a1 excitation


 Total energy:                           -433.9058577514251    

 Excitation energy:                      0.4326188140748617    

 Excitation energy / eV:                  11.77216194038663    

 Excitation energy / nm:                  105.3198593718940    

 Excitation energy / cm^(-1):             94948.85445295223    


 Oscillator strength:

    velocity representation:             0.3180362901962017    

    length representation:               0.2831595204362475    

    mixed representation:                0.3000916583533766    


 Rotatory strength:

    velocity representation:              0.000000000000000    

    velocity rep. / 10^(-40)erg*cm^3:     0.000000000000000    

    length representation:                0.000000000000000    

    length rep. / 10^(-40)erg*cm^3:       0.000000000000000    


 Dominant contributions:

    occ. orbital  energy / eV   virt. orbital  energy / eV   |coeff.|^2*100
      10 b1        -14.49          12 b1          4.51           23.9
      14 a1        -17.73          17 a1          3.81           11.6
       3 b2        -10.31           6 b2          8.08            5.8
      16 a1        -13.45          19 a1          5.25            5.7
       9 b1        -17.03          12 b1          4.51            3.1
       3 b2        -10.31           7 b2          8.57            3.1
      16 a1        -13.45          18 a1          4.80            3.1
      16 a1        -13.45          22 a1          8.37            2.4
      15 a1        -15.14          18 a1          4.80            2.4
      16 a1        -13.45          23 a1          9.77            2.4
       9 b1        -17.03          13 b1          5.72            1.7
      16 a1        -13.45          24 a1         10.40            1.6
      11 b1        -13.45          17 b1         11.12            1.6
       2 a2        -10.08           4 a2          9.60            1.6
      15 a1        -15.14          19 a1          5.25            1.5
      10 b1        -14.49          20 b1         14.86            1.2
       2 b2        -14.67           4 b2          1.11            1.2
      13 a1        -19.30          18 a1          4.80            1.2
      15 a1        -15.14          17 a1          3.81            1.1
      14 a1        -17.73          19 a1          5.25            1.1
      16 a1        -13.45          21 a1          7.46            1.0
      13 a1        -19.30          17 a1          3.81            0.8
      16 a1        -13.45          17 a1          3.81            0.8
      15 a1        -15.14          20 a1          5.84            0.8
      11 b1        -13.45          13 b1          5.72            0.7
       6 b1        -23.57          12 b1          4.51            0.7
       3 b2        -10.31           8 b2          9.91            0.7
      14 a1        -17.73          29 a1         14.79            0.6
      12 a1        -21.26          17 a1          3.81            0.6
       9 b1        -17.03          22 b1         16.65            0.5
       2 b2        -14.67           7 b2          8.57            0.4
      16 a1        -13.45          28 a1         14.21            0.4
       2 b2        -14.67           8 b2          9.91            0.4
       2 a2        -10.08           5 a2         12.28            0.4
      14 a1        -17.73          18 a1          4.80            0.4
      11 b1        -13.45          16 b1          9.75            0.4
      16 a1        -13.45          32 a1         15.95            0.3
      12 a1        -21.26          19 a1          5.25            0.3
      14 a1        -17.73          20 a1          5.84            0.3
      16 a1        -13.45          30 a1         15.40            0.3
      16 a1        -13.45          36 a1         20.15            0.3
      15 a1        -15.14          30 a1         15.40            0.3
       2 a2        -10.08           3 a2          2.59            0.3
      16 a1        -13.45          20 a1          5.84            0.3
       2 b2        -14.67           5 b2          4.04            0.3
      11 b1        -13.45          25 b1         20.02            0.3
 

 S^2 expectation value:                     2.00000000


 Change of electron number:

             0.000000


 Electric transition dipole moment (velocity rep.):

    x        0.000000        Norm:                  1.050101
    y        0.000000
    z        1.050101        Norm / debye:          2.669112


 Electric transition dipole moment (length rep.):

    x        0.000000        Norm:                  0.990851
    y        0.000000
    z        0.990851        Norm / debye:          2.518512


 Magnetic transition dipole moment / i:

    x        0.000000        Norm:                  0.000000
    y        0.000000
    z        0.000000        Norm / Bohr mag.:      0.000000


 Electric quadrupole transition moment:

   xx       -5.220879
   yy       -1.643128        1/3*trace:            -6.210141
   zz      -11.766415
   xy        0.000000
   xz        0.000000        Anisotropy:            8.891717
   yz        0.000000




                        10 triplet a1 excitation


 Total energy:                           -433.9043794211942    

 Excitation energy:                      0.4340971443057903    

 Excitation energy / eV:                  11.81238936997052    

 Excitation energy / nm:                  104.9611895808830    

 Excitation energy / cm^(-1):             95273.31043443794    


 Oscillator strength:

    velocity representation:             0.6018268602001292E-01

    length representation:               0.2250716583853185E-01

    mixed representation:                0.3680409888668276E-01


 Rotatory strength:

    velocity representation:              0.000000000000000    

    velocity rep. / 10^(-40)erg*cm^3:     0.000000000000000    

    length representation:                0.000000000000000    

    length rep. / 10^(-40)erg*cm^3:       0.000000000000000    


 Dominant contributions:

    occ. orbital  energy / eV   virt. orbital  energy / eV   |coeff.|^2*100
       3 b2        -10.31           6 b2          8.08           45.5
       2 b2        -14.67           4 b2          1.11           25.5
      10 b1        -14.49          12 b1          4.51            5.4
       2 b2        -14.67           5 b2          4.04            3.6
       1 b2        -19.55           4 b2          1.11            2.6
      14 a1        -17.73          17 a1          3.81            2.3
       3 b2        -10.31           5 b2          4.04            1.6
       1 b2        -19.55           5 b2          4.04            1.5
       3 b2        -10.31           7 b2          8.57            1.0
       3 b2        -10.31          11 b2         14.99            0.8
       3 b2        -10.31          10 b2         14.57            0.8
 

 S^2 expectation value:                     2.00000000


 Change of electron number:

            -0.000000


 Electric transition dipole moment (velocity rep.):

    x        0.000000        Norm:                  0.456024
    y        0.000000
    z       -0.456024        Norm / debye:          1.159107


 Electric transition dipole moment (length rep.):

    x        0.000000        Norm:                  0.278877
    y        0.000000
    z       -0.278877        Norm / debye:          0.708840


 Magnetic transition dipole moment / i:

    x        0.000000        Norm:                  0.000000
    y        0.000000
    z        0.000000        Norm / Bohr mag.:      0.000000


 Electric quadrupole transition moment:

   xx        3.373455
   yy        0.630198        1/3*trace:             2.095873
   zz        2.283965
   xy        0.000000
   xz        0.000000        Anisotropy:            2.392425
   yz        0.000000



 ==============================================================================

                              I R R E P   a2  

 ==============================================================================


 Excitation is electric dipole forbidden

 Excitation is magnetic dipole allowed

 Excitation is electric quadrupole allowed




                         1 triplet a2 excitation


 Total energy:                           -434.1742750657235    

 Excitation energy:                      0.1642014997765173    

 Excitation energy / eV:                  4.468152062126979    

 Excitation energy / nm:                  277.4843879137094    

 Excitation energy / cm^(-1):             36038.06352383727    


 Oscillator strength:

    velocity representation:              0.000000000000000    

    length representation:                0.000000000000000    

    mixed representation:                 0.000000000000000    


 Rotatory strength:

    velocity representation:              0.000000000000000    

    velocity rep. / 10^(-40)erg*cm^3:     0.000000000000000    

    length representation:                0.000000000000000    

    length rep. / 10^(-40)erg*cm^3:       0.000000000000000    


 Dominant contributions:

    occ. orbital  energy / eV   virt. orbital  energy / eV   |coeff.|^2*100
      11 b1        -13.45           4 b2          1.11           66.6
      11 b1        -13.45           5 b2          4.04           28.1
 

 S^2 expectation value:                     2.00000000


 Change of electron number:

             0.000000


 Electric transition dipole moment (velocity rep.):

    x        0.000000        Norm:                  0.000000
    y        0.000000
    z        0.000000        Norm / debye:          0.000000


 Electric transition dipole moment (length rep.):

    x        0.000000        Norm:                  0.000000
    y        0.000000
    z        0.000000        Norm / debye:          0.000000


 Magnetic transition dipole moment / i:

    x        0.000000        Norm:                  0.002427
    y        0.000000
    z       -0.002427        Norm / Bohr mag.:      0.665074


 Electric quadrupole transition moment:

   xx        0.000000
   yy        0.000000        1/3*trace:             0.000000
   zz        0.000000
   xy       -0.263996
   xz        0.000000        Anisotropy:            0.457255
   yz        0.000000




                         2 triplet a2 excitation


 Total energy:                           -434.0252210553451    

 Excitation energy:                      0.3132555101548729    

 Excitation energy / eV:                  8.524119789259704    

 Excitation energy / nm:                  145.4510812514473    

 Excitation energy / cm^(-1):             68751.63740598081    


 Oscillator strength:

    velocity representation:              0.000000000000000    

    length representation:                0.000000000000000    

    mixed representation:                 0.000000000000000    


 Rotatory strength:

    velocity representation:              0.000000000000000    

    velocity rep. / 10^(-40)erg*cm^3:     0.000000000000000    

    length representation:                0.000000000000000    

    length rep. / 10^(-40)erg*cm^3:       0.000000000000000    


 Dominant contributions:

    occ. orbital  energy / eV   virt. orbital  energy / eV   |coeff.|^2*100
      10 b1        -14.49           4 b2          1.11           75.5
      10 b1        -14.49           5 b2          4.04            9.8
       9 b1        -17.03           4 b2          1.11            1.4
      10 b1        -14.49           9 b2         12.32            1.0
       7 b1        -19.79           4 b2          1.11            1.0
       8 b1        -17.90           5 b2          4.04            1.0
       9 b1        -17.03           6 b2          8.08            0.8
 

 S^2 expectation value:                     2.00000000


 Change of electron number:

             0.000000


 Electric transition dipole moment (velocity rep.):

    x        0.000000        Norm:                  0.000000
    y        0.000000
    z        0.000000        Norm / debye:          0.000000


 Electric transition dipole moment (length rep.):

    x        0.000000        Norm:                  0.000000
    y        0.000000
    z        0.000000        Norm / debye:          0.000000


 Magnetic transition dipole moment / i:

    x        0.000000        Norm:                  0.000260
    y        0.000000
    z       -0.000260        Norm / Bohr mag.:      0.071302


 Electric quadrupole transition moment:

   xx        0.000000
   yy        0.000000        1/3*trace:             0.000000
   zz        0.000000
   xy       -0.157292
   xz        0.000000        Anisotropy:            0.272438
   yz        0.000000




                         3 triplet a2 excitation


 Total energy:                           -434.0244282056026    

 Excitation energy:                      0.3140483598974299    

 Excitation energy / eV:                  8.545694337707705    

 Excitation energy / nm:                  145.0838739450232    

 Excitation energy / cm^(-1):             68925.64781042912    


 Oscillator strength:

    velocity representation:              0.000000000000000    

    length representation:                0.000000000000000    

    mixed representation:                 0.000000000000000    


 Rotatory strength:

    velocity representation:              0.000000000000000    

    velocity rep. / 10^(-40)erg*cm^3:     0.000000000000000    

    length representation:                0.000000000000000    

    length rep. / 10^(-40)erg*cm^3:       0.000000000000000    


 Dominant contributions:

    occ. orbital  energy / eV   virt. orbital  energy / eV   |coeff.|^2*100
       2 a2        -10.08          17 a1          3.81           81.8
       2 a2        -10.08          18 a1          4.80            4.7
       2 b2        -14.67          12 b1          4.51            3.4
       3 b2        -10.31          12 b1          4.51            2.3
 

 S^2 expectation value:                     2.00000000


 Change of electron number:

             0.000000


 Electric transition dipole moment (velocity rep.):

    x        0.000000        Norm:                  0.000000
    y        0.000000
    z        0.000000        Norm / debye:          0.000000


 Electric transition dipole moment (length rep.):

    x        0.000000        Norm:                  0.000000
    y        0.000000
    z        0.000000        Norm / debye:          0.000000


 Magnetic transition dipole moment / i:

    x        0.000000        Norm:                  0.000408
    y        0.000000
    z        0.000408        Norm / Bohr mag.:      0.111734


 Electric quadrupole transition moment:

   xx        0.000000
   yy        0.000000        1/3*trace:             0.000000
   zz        0.000000
   xy        0.799751
   xz        0.000000        Anisotropy:            1.385210
   yz        0.000000




                         4 triplet a2 excitation


 Total energy:                           -433.9921876449727    

 Excitation energy:                      0.3462889205272851    

 Excitation energy / eV:                  9.423005005749600    

 Excitation energy / nm:                  131.5761202830916    

 Excitation energy / cm^(-1):             76001.63294822755    


 Oscillator strength:

    velocity representation:              0.000000000000000    

    length representation:                0.000000000000000    

    mixed representation:                 0.000000000000000    


 Rotatory strength:

    velocity representation:              0.000000000000000    

    velocity rep. / 10^(-40)erg*cm^3:     0.000000000000000    

    length representation:                0.000000000000000    

    length rep. / 10^(-40)erg*cm^3:       0.000000000000000    


 Dominant contributions:

    occ. orbital  energy / eV   virt. orbital  energy / eV   |coeff.|^2*100
      15 a1        -15.14           3 a2          2.59           52.8
      16 a1        -13.45           3 a2          2.59           18.3
       8 b1        -17.90           4 b2          1.11            6.1
       7 b1        -19.79           4 b2          1.11            4.4
       7 b1        -19.79           5 b2          4.04            2.4
      13 a1        -19.30           3 a2          2.59            1.9
      15 a1        -15.14           5 a2         12.28            1.4
       9 b1        -17.03           6 b2          8.08            1.3
       9 b1        -17.03           4 b2          1.11            1.1
      11 a1        -22.59           3 a2          2.59            0.9
 

 S^2 expectation value:                     2.00000000


 Change of electron number:

             0.000000


 Electric transition dipole moment (velocity rep.):

    x        0.000000        Norm:                  0.000000
    y        0.000000
    z        0.000000        Norm / debye:          0.000000


 Electric transition dipole moment (length rep.):

    x        0.000000        Norm:                  0.000000
    y        0.000000
    z        0.000000        Norm / debye:          0.000000


 Magnetic transition dipole moment / i:

    x        0.000000        Norm:                  0.001308
    y        0.000000
    z        0.001308        Norm / Bohr mag.:      0.358392


 Electric quadrupole transition moment:

   xx        0.000000
   yy        0.000000        1/3*trace:             0.000000
   zz        0.000000
   xy        0.256545
   xz        0.000000        Anisotropy:            0.444348
   yz        0.000000




                         5 triplet a2 excitation


 Total energy:                           -433.9907032911551    

 Excitation energy:                      0.3477732743449734    

 Excitation energy / eV:                  9.463396345539168    

 Excitation energy / nm:                  131.0145316537563    

 Excitation energy / cm^(-1):             76327.41095419282    


 Oscillator strength:

    velocity representation:              0.000000000000000    

    length representation:                0.000000000000000    

    mixed representation:                 0.000000000000000    


 Rotatory strength:

    velocity representation:              0.000000000000000    

    velocity rep. / 10^(-40)erg*cm^3:     0.000000000000000    

    length representation:                0.000000000000000    

    length rep. / 10^(-40)erg*cm^3:       0.000000000000000    


 Dominant contributions:

    occ. orbital  energy / eV   virt. orbital  energy / eV   |coeff.|^2*100
       2 a2        -10.08          20 a1          5.84           41.0
       2 a2        -10.08          19 a1          5.25           34.4
       2 a2        -10.08          21 a1          7.46            9.5
       2 a2        -10.08          18 a1          4.80            9.5
 

 S^2 expectation value:                     2.00000000


 Change of electron number:

             0.000000


 Electric transition dipole moment (velocity rep.):

    x        0.000000        Norm:                  0.000000
    y        0.000000
    z        0.000000        Norm / debye:          0.000000


 Electric transition dipole moment (length rep.):

    x        0.000000        Norm:                  0.000000
    y        0.000000
    z        0.000000        Norm / debye:          0.000000


 Magnetic transition dipole moment / i:

    x        0.000000        Norm:                  0.007309
    y        0.000000
    z       -0.007309        Norm / Bohr mag.:      2.003187


 Electric quadrupole transition moment:

   xx        0.000000
   yy        0.000000        1/3*trace:             0.000000
   zz        0.000000
   xy       -4.001734
   xz        0.000000        Anisotropy:            6.931206
   yz        0.000000




                         6 triplet a2 excitation


 Total energy:                           -433.9819908466657    

 Excitation energy:                      0.3564857188343510    

 Excitation energy / eV:                  9.700474124148755    

 Excitation energy / nm:                  127.8125609322712    

 Excitation energy / cm^(-1):             78239.57149099321    


 Oscillator strength:

    velocity representation:              0.000000000000000    

    length representation:                0.000000000000000    

    mixed representation:                 0.000000000000000    


 Rotatory strength:

    velocity representation:              0.000000000000000    

    velocity rep. / 10^(-40)erg*cm^3:     0.000000000000000    

    length representation:                0.000000000000000    

    length rep. / 10^(-40)erg*cm^3:       0.000000000000000    


 Dominant contributions:

    occ. orbital  energy / eV   virt. orbital  energy / eV   |coeff.|^2*100
       7 b1        -19.79           4 b2          1.11           31.4
       7 b1        -19.79           5 b2          4.04           20.0
       8 b1        -17.90           4 b2          1.11           15.1
      15 a1        -15.14           3 a2          2.59           11.6
      10 b1        -14.49           5 b2          4.04            8.2
       9 b1        -17.03           4 b2          1.11            2.9
       8 b1        -17.90           6 b2          8.08            1.0
 

 S^2 expectation value:                     2.00000000


 Change of electron number:

             0.000000


 Electric transition dipole moment (velocity rep.):

    x        0.000000        Norm:                  0.000000
    y        0.000000
    z        0.000000        Norm / debye:          0.000000


 Electric transition dipole moment (length rep.):

    x        0.000000        Norm:                  0.000000
    y        0.000000
    z        0.000000        Norm / debye:          0.000000


 Magnetic transition dipole moment / i:

    x        0.000000        Norm:                  0.001343
    y        0.000000
    z       -0.001343        Norm / Bohr mag.:      0.368120


 Electric quadrupole transition moment:

   xx        0.000000
   yy        0.000000        1/3*trace:             0.000000
   zz        0.000000
   xy       -0.400298
   xz        0.000000        Anisotropy:            0.693336
   yz        0.000000




                         7 triplet a2 excitation


 Total energy:                           -433.9685746242052    

 Excitation energy:                      0.3699019412948155    

 Excitation energy / eV:                  10.06554826862531    

 Excitation energy / nm:                  123.1768411393266    

 Excitation energy / cm^(-1):             81184.09196089271    


 Oscillator strength:

    velocity representation:              0.000000000000000    

    length representation:                0.000000000000000    

    mixed representation:                 0.000000000000000    


 Rotatory strength:

    velocity representation:              0.000000000000000    

    velocity rep. / 10^(-40)erg*cm^3:     0.000000000000000    

    length representation:                0.000000000000000    

    length rep. / 10^(-40)erg*cm^3:       0.000000000000000    


 Dominant contributions:

    occ. orbital  energy / eV   virt. orbital  energy / eV   |coeff.|^2*100
       2 a2        -10.08          18 a1          4.80           44.1
       3 b2        -10.31          12 b1          4.51           32.4
       2 a2        -10.08          20 a1          5.84           13.7
 

 S^2 expectation value:                     2.00000000


 Change of electron number:

             0.000000


 Electric transition dipole moment (velocity rep.):

    x        0.000000        Norm:                  0.000000
    y        0.000000
    z        0.000000        Norm / debye:          0.000000


 Electric transition dipole moment (length rep.):

    x        0.000000        Norm:                  0.000000
    y        0.000000
    z        0.000000        Norm / debye:          0.000000


 Magnetic transition dipole moment / i:

    x        0.000000        Norm:                  0.001758
    y        0.000000
    z       -0.001758        Norm / Bohr mag.:      0.481817


 Electric quadrupole transition moment:

   xx        0.000000
   yy        0.000000        1/3*trace:             0.000000
   zz        0.000000
   xy       -0.751564
   xz        0.000000        Anisotropy:            1.301746
   yz        0.000000




                         8 triplet a2 excitation


 Total energy:                           -433.9615061860697    

 Excitation energy:                      0.3769703794302829    

 Excitation energy / eV:                  10.25789033903265    

 Excitation energy / nm:                  120.8671957962854    

 Excitation energy / cm^(-1):             82735.43481030021    


 Oscillator strength:

    velocity representation:              0.000000000000000    

    length representation:                0.000000000000000    

    mixed representation:                 0.000000000000000    


 Rotatory strength:

    velocity representation:              0.000000000000000    

    velocity rep. / 10^(-40)erg*cm^3:     0.000000000000000    

    length representation:                0.000000000000000    

    length rep. / 10^(-40)erg*cm^3:       0.000000000000000    


 Dominant contributions:

    occ. orbital  energy / eV   virt. orbital  energy / eV   |coeff.|^2*100
       9 b1        -17.03           4 b2          1.11           17.1
      14 a1        -17.73           3 a2          2.59           16.0
       7 b1        -19.79           4 b2          1.11           13.8
      16 a1        -13.45           3 a2          2.59            9.6
      10 b1        -14.49           6 b2          8.08            7.0
       8 b1        -17.90           5 b2          4.04            5.4
      10 b1        -14.49           5 b2          4.04            5.3
       8 b1        -17.90           4 b2          1.11            3.9
       9 b1        -17.03           5 b2          4.04            3.6
       7 b1        -19.79           5 b2          4.04            2.8
      10 b1        -14.49           7 b2          8.57            2.6
       2 a2        -10.08          18 a1          4.80            1.4
       2 a2        -10.08          19 a1          5.25            1.3
      10 b1        -14.49          11 b2         14.99            1.2
 

 S^2 expectation value:                     2.00000000


 Change of electron number:

             0.000000


 Electric transition dipole moment (velocity rep.):

    x        0.000000        Norm:                  0.000000
    y        0.000000
    z        0.000000        Norm / debye:          0.000000


 Electric transition dipole moment (length rep.):

    x        0.000000        Norm:                  0.000000
    y        0.000000
    z        0.000000        Norm / debye:          0.000000


 Magnetic transition dipole moment / i:

    x        0.000000        Norm:                  0.011836
    y        0.000000
    z        0.011836        Norm / Bohr mag.:      3.243958


 Electric quadrupole transition moment:

   xx        0.000000
   yy        0.000000        1/3*trace:             0.000000
   zz        0.000000
   xy        2.735980
   xz        0.000000        Anisotropy:            4.738857
   yz        0.000000




                         9 triplet a2 excitation


 Total energy:                           -433.9535428208235    

 Excitation energy:                      0.3849337446764338    

 Excitation energy / eV:                  10.47458462559207    

 Excitation energy / nm:                  118.3667404849099    

 Excitation energy / cm^(-1):             84483.19145682841    


 Oscillator strength:

    velocity representation:              0.000000000000000    

    length representation:                0.000000000000000    

    mixed representation:                 0.000000000000000    


 Rotatory strength:

    velocity representation:              0.000000000000000    

    velocity rep. / 10^(-40)erg*cm^3:     0.000000000000000    

    length representation:                0.000000000000000    

    length rep. / 10^(-40)erg*cm^3:       0.000000000000000    


 Dominant contributions:

    occ. orbital  energy / eV   virt. orbital  energy / eV   |coeff.|^2*100
       3 b2        -10.31          12 b1          4.51           41.4
       2 a2        -10.08          18 a1          4.80           28.9
       2 a2        -10.08          19 a1          5.25            9.4
       2 a2        -10.08          17 a1          3.81            9.2
       2 a2        -10.08          22 a1          8.37            1.6
 

 S^2 expectation value:                     2.00000000


 Change of electron number:

             0.000000


 Electric transition dipole moment (velocity rep.):

    x        0.000000        Norm:                  0.000000
    y        0.000000
    z        0.000000        Norm / debye:          0.000000


 Electric transition dipole moment (length rep.):

    x        0.000000        Norm:                  0.000000
    y        0.000000
    z        0.000000        Norm / debye:          0.000000


 Magnetic transition dipole moment / i:

    x        0.000000        Norm:                  0.003222
    y        0.000000
    z        0.003222        Norm / Bohr mag.:      0.882963


 Electric quadrupole transition moment:

   xx        0.000000
   yy        0.000000        1/3*trace:             0.000000
   zz        0.000000
   xy        0.250659
   xz        0.000000        Anisotropy:            0.434154
   yz        0.000000




                        10 triplet a2 excitation


 Total energy:                           -433.9380981094855    

 Excitation energy:                      0.4003784560144883    

 Excitation energy / eV:                  10.89485678454316    

 Excitation energy / nm:                  113.8007102418898    

 Excitation energy / cm^(-1):             87872.91377401602    


 Oscillator strength:

    velocity representation:              0.000000000000000    

    length representation:                0.000000000000000    

    mixed representation:                 0.000000000000000    


 Rotatory strength:

    velocity representation:              0.000000000000000    

    velocity rep. / 10^(-40)erg*cm^3:     0.000000000000000    

    length representation:                0.000000000000000    

    length rep. / 10^(-40)erg*cm^3:       0.000000000000000    


 Dominant contributions:

    occ. orbital  energy / eV   virt. orbital  energy / eV   |coeff.|^2*100
       1 a2        -12.37          18 a1          4.80           21.9
       1 a2        -12.37          19 a1          5.25           21.8
       1 a2        -12.37          17 a1          3.81           10.5
       1 a2        -12.37          21 a1          7.46            9.0
       1 a2        -12.37          24 a1         10.40            8.4
       1 a2        -12.37          22 a1          8.37            4.7
       3 b2        -10.31          13 b1          5.72            3.3
       1 a2        -12.37          23 a1          9.77            3.0
       2 a2        -10.08          19 a1          5.25            1.7
       2 a2        -10.08          21 a1          7.46            1.4
       3 b2        -10.31          12 b1          4.51            1.2
       1 a2        -12.37          28 a1         14.21            1.2
       1 a2        -12.37          32 a1         15.95            1.0
       1 a2        -12.37          36 a1         20.15            1.0
 

 S^2 expectation value:                     2.00000000


 Change of electron number:

             0.000000


 Electric transition dipole moment (velocity rep.):

    x        0.000000        Norm:                  0.000000
    y        0.000000
    z        0.000000        Norm / debye:          0.000000


 Electric transition dipole moment (length rep.):

    x        0.000000        Norm:                  0.000000
    y        0.000000
    z        0.000000        Norm / debye:          0.000000


 Magnetic transition dipole moment / i:

    x        0.000000        Norm:                  0.002375
    y        0.000000
    z       -0.002375        Norm / Bohr mag.:      0.650874


 Electric quadrupole transition moment:

   xx        0.000000
   yy        0.000000        1/3*trace:             0.000000
   zz        0.000000
   xy       -1.454142
   xz        0.000000        Anisotropy:            2.518647
   yz        0.000000



 ==============================================================================

                              I R R E P   b1  

 ==============================================================================


 Excitation is electric dipole allowed

 Excitation is magnetic dipole allowed

 Excitation is electric quadrupole allowed




                         1 triplet b1 excitation


 Total energy:                           -434.2321800310738    

 Excitation energy:                      0.1062965344261950    

 Excitation energy / eV:                  2.892477109769236    

 Excitation energy / nm:                  428.6438208541601    

 Excitation energy / cm^(-1):             23329.39263787899    


 Oscillator strength:

    velocity representation:              1.244249271059590    

    length representation:               0.2503834153281524    

    mixed representation:                0.5581571302128677    


 Rotatory strength:

    velocity representation:              0.000000000000000    

    velocity rep. / 10^(-40)erg*cm^3:     0.000000000000000    

    length representation:                0.000000000000000    

    length rep. / 10^(-40)erg*cm^3:       0.000000000000000    


 Dominant contributions:

    occ. orbital  energy / eV   virt. orbital  energy / eV   |coeff.|^2*100
       1 a2        -12.37           4 b2          1.11           65.1
       1 a2        -12.37           5 b2          4.04           29.5
 

 S^2 expectation value:                     2.00000000


 Change of electron number:

             0.000000


 Electric transition dipole moment (velocity rep.):

    x        4.190248        Norm:                  4.190248
    y        0.000000
    z        0.000000        Norm / debye:         10.650630


 Electric transition dipole moment (length rep.):

    x        1.879701        Norm:                  1.879701
    y        0.000000
    z        0.000000        Norm / debye:          4.777760


 Magnetic transition dipole moment / i:

    x        0.000000        Norm:                  0.007048
    y        0.007048
    z        0.000000        Norm / Bohr mag.:      1.931636


 Electric quadrupole transition moment:

   xx        0.000000
   yy        0.000000        1/3*trace:             0.000000
   zz        0.000000
   xy        0.000000
   xz       10.899753        Anisotropy:           18.878927
   yz        0.000000




                         2 triplet b1 excitation


 Total energy:                           -434.1738260597365    

 Excitation energy:                      0.1646505057635073    

 Excitation energy / eV:                  4.480370141921664    

 Excitation energy / nm:                  276.7276811493315    

 Excitation energy / cm^(-1):             36136.60894701398    


 Oscillator strength:

    velocity representation:              1.001465495093437    

    length representation:               0.6734450403807456    

    mixed representation:                0.8212380719274543    


 Rotatory strength:

    velocity representation:              0.000000000000000    

    velocity rep. / 10^(-40)erg*cm^3:     0.000000000000000    

    length representation:                0.000000000000000    

    length rep. / 10^(-40)erg*cm^3:       0.000000000000000    


 Dominant contributions:

    occ. orbital  energy / eV   virt. orbital  energy / eV   |coeff.|^2*100
       2 a2        -10.08           4 b2          1.11           79.9
       2 a2        -10.08           5 b2          4.04           11.8
 

 S^2 expectation value:                     2.00000000


 Change of electron number:

             0.000000


 Electric transition dipole moment (velocity rep.):

    x        3.020523        Norm:                  3.020523
    y        0.000000
    z        0.000000        Norm / debye:          7.677461


 Electric transition dipole moment (length rep.):

    x        2.476938        Norm:                  2.476938
    y        0.000000
    z        0.000000        Norm / debye:          6.295797


 Magnetic transition dipole moment / i:

    x        0.000000        Norm:                  0.001802
    y       -0.001802
    z        0.000000        Norm / Bohr mag.:      0.493958


 Electric quadrupole transition moment:

   xx        0.000000
   yy        0.000000        1/3*trace:             0.000000
   zz        0.000000
   xy        0.000000
   xz       -0.715118        Anisotropy:            1.238622
   yz        0.000000




                         3 triplet b1 excitation


 Total energy:                           -434.1303854644840    

 Excitation energy:                      0.2080911010159964    

 Excitation energy / eV:                  5.662449389197767    

 Excitation energy / nm:                  218.9586793358235    

 Excitation energy / cm^(-1):             45670.71754744220    


 Oscillator strength:

    velocity representation:             0.3951201463593415    

    length representation:               0.3215008374881461    

    mixed representation:                0.3564147274776495    


 Rotatory strength:

    velocity representation:              0.000000000000000    

    velocity rep. / 10^(-40)erg*cm^3:     0.000000000000000    

    length representation:                0.000000000000000    

    length rep. / 10^(-40)erg*cm^3:       0.000000000000000    


 Dominant contributions:

    occ. orbital  energy / eV   virt. orbital  energy / eV   |coeff.|^2*100
       3 b2        -10.31           3 a2          2.59           91.6
 

 S^2 expectation value:                     2.00000000


 Change of electron number:

             0.000000


 Electric transition dipole moment (velocity rep.):

    x        1.687654        Norm:                  1.687654
    y        0.000000
    z        0.000000        Norm / debye:          4.289622


 Electric transition dipole moment (length rep.):

    x        1.522334        Norm:                  1.522334
    y        0.000000
    z        0.000000        Norm / debye:          3.869416


 Magnetic transition dipole moment / i:

    x        0.000000        Norm:                  0.001009
    y       -0.001009
    z        0.000000        Norm / Bohr mag.:      0.276556


 Electric quadrupole transition moment:

   xx        0.000000
   yy        0.000000        1/3*trace:             0.000000
   zz        0.000000
   xy        0.000000
   xz       -2.998676        Anisotropy:            5.193859
   yz        0.000000




                         4 triplet b1 excitation


 Total energy:                           -434.0591082610806    

 Excitation energy:                      0.2793683044194204    

 Excitation energy / eV:                  7.602001608898011    

 Excitation energy / nm:                  163.0942091111201    

 Excitation energy / cm^(-1):             61314.25544173747    


 Oscillator strength:

    velocity representation:             0.2187577685098021E-01

    length representation:               0.1874598018414005E-01

    mixed representation:                0.2025050318785053E-01


 Rotatory strength:

    velocity representation:              0.000000000000000    

    velocity rep. / 10^(-40)erg*cm^3:     0.000000000000000    

    length representation:                0.000000000000000    

    length rep. / 10^(-40)erg*cm^3:       0.000000000000000    


 Dominant contributions:

    occ. orbital  energy / eV   virt. orbital  energy / eV   |coeff.|^2*100
       2 b2        -14.67           3 a2          2.59           38.2
       2 a2        -10.08           5 b2          4.04           37.6
       2 a2        -10.08           6 b2          8.08           10.2
       2 a2        -10.08           7 b2          8.57            2.3
       3 b2        -10.31           3 a2          2.59            1.8
 

 S^2 expectation value:                     2.00000000


 Change of electron number:

             0.000000


 Electric transition dipole moment (velocity rep.):

    x        0.342719        Norm:                  0.342719
    y        0.000000
    z        0.000000        Norm / debye:          0.871113


 Electric transition dipole moment (length rep.):

    x        0.317257        Norm:                  0.317257
    y        0.000000
    z        0.000000        Norm / debye:          0.806393


 Magnetic transition dipole moment / i:

    x        0.000000        Norm:                  0.000087
    y       -0.000087
    z        0.000000        Norm / Bohr mag.:      0.023711


 Electric quadrupole transition moment:

   xx        0.000000
   yy        0.000000        1/3*trace:             0.000000
   zz        0.000000
   xy        0.000000
   xz       -5.077830        Anisotropy:            8.795060
   yz        0.000000




                         5 triplet b1 excitation


 Total energy:                           -433.9922673105442    

 Excitation energy:                      0.3462092549558290    

 Excitation energy / eV:                  9.420837194323600    

 Excitation energy / nm:                  131.6063970208225    

 Excitation energy / cm^(-1):             75984.14837635272    


 Oscillator strength:

    velocity representation:             0.9802514794603577E-01

    length representation:               0.8472428544736153E-01

    mixed representation:                0.9113237962217259E-01


 Rotatory strength:

    velocity representation:              0.000000000000000    

    velocity rep. / 10^(-40)erg*cm^3:     0.000000000000000    

    length representation:                0.000000000000000    

    length rep. / 10^(-40)erg*cm^3:       0.000000000000000    


 Dominant contributions:

    occ. orbital  energy / eV   virt. orbital  energy / eV   |coeff.|^2*100
       2 a2        -10.08           5 b2          4.04           48.6
       2 b2        -14.67           3 a2          2.59           29.4
       2 a2        -10.08           4 b2          1.11           11.7
       2 a2        -10.08           6 b2          8.08            5.0
 

 S^2 expectation value:                     2.00000000


 Change of electron number:

             0.000000


 Electric transition dipole moment (velocity rep.):

    x       -0.651696        Norm:                  0.651696
    y        0.000000
    z        0.000000        Norm / debye:          1.656458


 Electric transition dipole moment (length rep.):

    x       -0.605871        Norm:                  0.605871
    y        0.000000
    z        0.000000        Norm / debye:          1.539982


 Magnetic transition dipole moment / i:

    x        0.000000        Norm:                  0.000257
    y        0.000257
    z        0.000000        Norm / Bohr mag.:      0.070301


 Electric quadrupole transition moment:

   xx        0.000000
   yy        0.000000        1/3*trace:             0.000000
   zz        0.000000
   xy        0.000000
[...]
    length rep. / 10^(-40)erg*cm^3:       0.000000000000000    


 Dominant contributions:

    occ. orbital  energy / eV   virt. orbital  energy / eV   |coeff.|^2*100
      15 a1        -15.14           4 b2          1.11           61.0
      10 b1        -14.49           3 a2          2.59           10.6
      15 a1        -15.14           5 b2          4.04           10.1
      16 a1        -13.45           4 b2          1.11            3.3
      16 a1        -13.45           5 b2          4.04            2.6
       3 b2        -10.31          17 a1          3.81            2.1
      13 a1        -19.30           5 b2          4.04            1.3
 

 S^2 expectation value:                     2.00000000


 Change of electron number:

             0.000000


 Electric transition dipole moment (velocity rep.):

    x        0.000000        Norm:                  0.339626
    y        0.339626
    z        0.000000        Norm / debye:          0.863250


 Electric transition dipole moment (length rep.):

    x        0.000000        Norm:                  0.257135
    y        0.257135
    z        0.000000        Norm / debye:          0.653576


 Magnetic transition dipole moment / i:

    x        0.001999        Norm:                  0.001999
    y        0.000000
    z        0.000000        Norm / Bohr mag.:      0.547837


 Electric quadrupole transition moment:

   xx        0.000000
   yy        0.000000        1/3*trace:             0.000000
   zz        0.000000
   xy        0.000000
   xz        0.000000        Anisotropy:            1.763371
   yz       -1.018083




                         4 triplet b2 excitation


 Total energy:                           -434.0017919835587    

 Excitation energy:                      0.3366845819413140    

 Excitation energy / eV:                  9.161657543535924    

 Excitation energy / nm:                  135.3294896881911    

 Excitation energy / cm^(-1):             73893.72428395378    


 Oscillator strength:

    velocity representation:             0.2672936373636014E-01

    length representation:               0.1519049754573470E-01

    mixed representation:                0.2015024402423526E-01


 Rotatory strength:

    velocity representation:              0.000000000000000    

    velocity rep. / 10^(-40)erg*cm^3:     0.000000000000000    

    length representation:                0.000000000000000    

    length rep. / 10^(-40)erg*cm^3:       0.000000000000000    


 Dominant contributions:

    occ. orbital  energy / eV   virt. orbital  energy / eV   |coeff.|^2*100
      10 b1        -14.49           3 a2          2.59           74.6
      15 a1        -15.14           4 b2          1.11            7.2
      15 a1        -15.14           5 b2          4.04            1.9
      14 a1        -17.73           6 b2          8.08            1.7
      10 b1        -14.49           5 a2         12.28            1.5
       2 a2        -10.08          12 b1          4.51            1.2
      11 b1        -13.45           3 a2          2.59            1.2
      12 a1        -21.26           4 b2          1.11            1.1
 

 S^2 expectation value:                     2.00000000


 Change of electron number:

             0.000000


 Electric transition dipole moment (velocity rep.):

    x        0.000000        Norm:                  0.345087
    y       -0.345087
    z        0.000000        Norm / debye:          0.877130


 Electric transition dipole moment (length rep.):

    x        0.000000        Norm:                  0.260148
    y       -0.260148
    z        0.000000        Norm / debye:          0.661235


 Magnetic transition dipole moment / i:

    x        0.000856        Norm:                  0.000856
    y        0.000000
    z        0.000000        Norm / Bohr mag.:      0.234623


 Electric quadrupole transition moment:

   xx        0.000000
   yy        0.000000        1/3*trace:             0.000000
   zz        0.000000
   xy        0.000000
   xz        0.000000        Anisotropy:            0.704805
   yz       -0.406919




                         5 triplet b2 excitation


 Total energy:                           -433.9921282827170    

 Excitation energy:                      0.3463482827830472    

 Excitation energy / eV:                  9.424620335608687    

 Excitation energy / nm:                  131.5535688350472    

 Excitation energy / cm^(-1):             76014.66145738846    


 Oscillator strength:

    velocity representation:             0.2191224973074637E-03

    length representation:               0.4213305120630830E-03

    mixed representation:                0.3038469910910674E-03


 Rotatory strength:

    velocity representation:              0.000000000000000    

    velocity rep. / 10^(-40)erg*cm^3:     0.000000000000000    

    length representation:                0.000000000000000    

    length rep. / 10^(-40)erg*cm^3:       0.000000000000000    


 Dominant contributions:

    occ. orbital  energy / eV   virt. orbital  energy / eV   |coeff.|^2*100
       2 a2        -10.08          12 b1          4.51           49.4
       3 b2        -10.31          20 a1          5.84           18.1
       3 b2        -10.31          17 a1          3.81            7.1
       3 b2        -10.31          23 a1          9.77            4.0
       2 b2        -14.67          17 a1          3.81            3.8
       3 b2        -10.31          19 a1          5.25            3.2
       3 b2        -10.31          22 a1          8.37            1.8
      10 b1        -14.49           3 a2          2.59            1.6
       2 b2        -14.67          18 a1          4.80            1.4
 

 S^2 expectation value:                     2.00000000


 Change of electron number:

             0.000000


 Electric transition dipole moment (velocity rep.):

    x        0.000000        Norm:                  0.030806
    y       -0.030806
    z        0.000000        Norm / debye:          0.078301


 Electric transition dipole moment (length rep.):

    x        0.000000        Norm:                  0.042717
    y        0.042717
    z        0.000000        Norm / debye:          0.108577


 Magnetic transition dipole moment / i:

    x        0.002195        Norm:                  0.002195
    y        0.000000
    z        0.000000        Norm / Bohr mag.:      0.601669


 Electric quadrupole transition moment:

   xx        0.000000
   yy        0.000000        1/3*trace:             0.000000
   zz        0.000000
   xy        0.000000
   xz        0.000000        Anisotropy:            3.533532
   yz       -2.040086




                         6 triplet b2 excitation


 Total energy:                           -433.9885583156556    

 Excitation energy:                      0.3499182498444098    

 Excitation energy / eV:                  9.521764123629275    

 Excitation energy / nm:                  130.2114213255800    

 Excitation energy / cm^(-1):             76798.17865979217    


 Oscillator strength:

    velocity representation:             0.4853496232900869E-01

    length representation:               0.4238566551221958E-01

    mixed representation:                0.4535621984828034E-01


 Rotatory strength:

    velocity representation:              0.000000000000000    

    velocity rep. / 10^(-40)erg*cm^3:     0.000000000000000    

    length representation:                0.000000000000000    

    length rep. / 10^(-40)erg*cm^3:       0.000000000000000    


 Dominant contributions:

    occ. orbital  energy / eV   virt. orbital  energy / eV   |coeff.|^2*100
       3 b2        -10.31          19 a1          5.25           38.1
       3 b2        -10.31          20 a1          5.84           28.3
       2 a2        -10.08          12 b1          4.51           13.3
       3 b2        -10.31          18 a1          4.80            5.6
       3 b2        -10.31          17 a1          3.81            3.6
       3 b2        -10.31          21 a1          7.46            2.3
 

 S^2 expectation value:                     2.00000000


 Change of electron number:

             0.000000


 Electric transition dipole moment (velocity rep.):

    x        0.000000        Norm:                  0.456131
    y        0.456131
    z        0.000000        Norm / debye:          1.159378


 Electric transition dipole moment (length rep.):

    x        0.000000        Norm:                  0.426257
    y        0.426257
    z        0.000000        Norm / debye:          1.083446


 Magnetic transition dipole moment / i:

    x       -0.004043        Norm:                  0.004043
    y        0.000000
    z        0.000000        Norm / Bohr mag.:      1.108190


 Electric quadrupole transition moment:

   xx        0.000000
   yy        0.000000        1/3*trace:             0.000000
   zz        0.000000
   xy        0.000000
   xz        0.000000        Anisotropy:            4.965829
   yz        2.867023




                         7 triplet b2 excitation


 Total energy:                           -433.9690857158374    

 Excitation energy:                      0.3693908496626399    

 Excitation energy / eV:                  10.05164075174301    

 Excitation energy / nm:                  123.3472694345635    

 Excitation energy / cm^(-1):             81071.92031366711    


 Oscillator strength:

    velocity representation:             0.4649652759923859E-03

    length representation:               0.8271094318744889E-04

    mixed representation:                0.1961063908360529E-03


 Rotatory strength:

    velocity representation:              0.000000000000000    

    velocity rep. / 10^(-40)erg*cm^3:     0.000000000000000    

    length representation:                0.000000000000000    

    length rep. / 10^(-40)erg*cm^3:       0.000000000000000    


 Dominant contributions:

    occ. orbital  energy / eV   virt. orbital  energy / eV   |coeff.|^2*100
       3 b2        -10.31          18 a1          4.80           71.2
       2 a2        -10.08          12 b1          4.51            7.2
       3 b2        -10.31          23 a1          9.77            6.2
       3 b2        -10.31          19 a1          5.25            4.1
       2 b2        -14.67          17 a1          3.81            1.6
 

 S^2 expectation value:                     2.00000000


 Change of electron number:

             0.000000


 Electric transition dipole moment (velocity rep.):

    x        0.000000        Norm:                  0.043452
    y       -0.043452
    z        0.000000        Norm / debye:          0.110446


 Electric transition dipole moment (length rep.):

    x        0.000000        Norm:                  0.018327
    y       -0.018327
    z        0.000000        Norm / debye:          0.046582


 Magnetic transition dipole moment / i:

    x       -0.000415        Norm:                  0.000415
    y        0.000000
    z        0.000000        Norm / Bohr mag.:      0.113744


 Electric quadrupole transition moment:

   xx        0.000000
   yy        0.000000        1/3*trace:             0.000000
   zz        0.000000
   xy        0.000000
   xz        0.000000        Anisotropy:            0.599879
   yz       -0.346341




                         8 triplet b2 excitation


 Total energy:                           -433.9581537904262    

 Excitation energy:                      0.3803227750738086    

 Excitation energy / eV:                  10.34911370500721    

 Excitation energy / nm:                  119.8017990144229    

 Excitation energy / cm^(-1):             83471.20060612331    


 Oscillator strength:

    velocity representation:             0.9934007158679687E-02

    length representation:               0.7695623468249402E-02

    mixed representation:                0.8743476346630839E-02


 Rotatory strength:

    velocity representation:              0.000000000000000    

    velocity rep. / 10^(-40)erg*cm^3:     0.000000000000000    

    length representation:                0.000000000000000    

    length rep. / 10^(-40)erg*cm^3:       0.000000000000000    


 Dominant contributions:

    occ. orbital  energy / eV   virt. orbital  energy / eV   |coeff.|^2*100
       9 b1        -17.03           3 a2          2.59           34.5
      11 b1        -13.45           3 a2          2.59           14.9
       8 b1        -17.90           3 a2          2.59           11.7
      15 a1        -15.14           5 b2          4.04            8.4
      13 a1        -19.30           4 b2          1.11            6.9
      15 a1        -15.14           6 b2          8.08            4.7
      16 a1        -13.45           5 b2          4.04            2.8
      10 b1        -14.49           3 a2          2.59            1.7
      15 a1        -15.14           7 b2          8.57            1.6
       9 b1        -17.03           5 a2         12.28            1.1
      15 a1        -15.14          11 b2         14.99            1.0
      14 a1        -17.73           5 b2          4.04            0.9
 

 S^2 expectation value:                     2.00000000


 Change of electron number:

             0.000000


 Electric transition dipole moment (velocity rep.):

    x        0.000000        Norm:                  0.197939
    y       -0.197939
    z        0.000000        Norm / debye:          0.503115


 Electric transition dipole moment (length rep.):

    x        0.000000        Norm:                  0.174217
    y       -0.174217
    z        0.000000        Norm / debye:          0.442820


 Magnetic transition dipole moment / i:

    x       -0.008071        Norm:                  0.008071
    y        0.000000
    z        0.000000        Norm / Bohr mag.:      2.212014


 Electric quadrupole transition moment:

   xx        0.000000
   yy        0.000000        1/3*trace:             0.000000
   zz        0.000000
   xy        0.000000
   xz        0.000000        Anisotropy:            2.991450
   yz        1.727115




                         9 triplet b2 excitation


 Total energy:                           -433.9458441179249    

 Excitation energy:                      0.3926324475750781    

 Excitation energy / eV:                  10.68407708016221    

 Excitation energy / nm:                  116.0458157276660    

 Excitation energy / cm^(-1):             86172.86143237738    


 Oscillator strength:

    velocity representation:             0.2327412209748892E-01

    length representation:               0.1825211697964538E-01

    mixed representation:                0.2061072534196498E-01


 Rotatory strength:

    velocity representation:              0.000000000000000    

    velocity rep. / 10^(-40)erg*cm^3:     0.000000000000000    

    length representation:                0.000000000000000    

    length rep. / 10^(-40)erg*cm^3:       0.000000000000000    


 Dominant contributions:

    occ. orbital  energy / eV   virt. orbital  energy / eV   |coeff.|^2*100
      16 a1        -13.45           5 b2          4.04           21.1
      14 a1        -17.73           4 b2          1.11           17.5
      16 a1        -13.45           4 b2          1.11           12.3
      15 a1        -15.14           5 b2          4.04            7.7
      13 a1        -19.30           4 b2          1.11            6.6
      12 a1        -21.26           4 b2          1.11            6.4
       8 b1        -17.90           3 a2          2.59            4.9
       9 b1        -17.03           3 a2          2.59            3.7
      16 a1        -13.45           6 b2          8.08            2.9
      14 a1        -17.73           5 b2          4.04            2.1
       2 a2        -10.08          13 b1          5.72            2.0
      12 a1        -21.26           5 b2          4.04            1.3
      16 a1        -13.45           7 b2          8.57            0.9
       3 b2        -10.31          22 a1          8.37            0.7
 

 S^2 expectation value:                     2.00000000


 Change of electron number:

             0.000000


 Electric transition dipole moment (velocity rep.):

    x        0.000000        Norm:                  0.298187
    y       -0.298187
    z        0.000000        Norm / debye:          0.757922


 Electric transition dipole moment (length rep.):

    x        0.000000        Norm:                  0.264064
    y       -0.264064
    z        0.000000        Norm / debye:          0.671189


 Magnetic transition dipole moment / i:

    x       -0.004024        Norm:                  0.004024
    y        0.000000
    z        0.000000        Norm / Bohr mag.:      1.102769


 Electric quadrupole transition moment:

   xx        0.000000
   yy        0.000000        1/3*trace:             0.000000
   zz        0.000000
   xy        0.000000
   xz        0.000000        Anisotropy:            0.671543
   yz        0.387715




                        10 triplet b2 excitation


 Total energy:                           -433.9395463890565    

 Excitation energy:                      0.3989301764434303    

 Excitation energy / eV:                  10.85544707537018    

 Excitation energy / nm:                  114.2138533269394    

 Excitation energy / cm^(-1):             87555.05315000770    


 Oscillator strength:

    velocity representation:             0.2407831618834959    

    length representation:               0.2202264980640870    

    mixed representation:                0.2302755578310482    


 Rotatory strength:

    velocity representation:              0.000000000000000    

    velocity rep. / 10^(-40)erg*cm^3:     0.000000000000000    

    length representation:                0.000000000000000    

    length rep. / 10^(-40)erg*cm^3:       0.000000000000000    


 Dominant contributions:

    occ. orbital  energy / eV   virt. orbital  energy / eV   |coeff.|^2*100
       2 a2        -10.08          13 b1          5.72           67.6
       3 b2        -10.31          21 a1          7.46            4.0
       2 a2        -10.08          15 b1          8.66            4.0
       3 b2        -10.31          22 a1          8.37            2.7
       3 b2        -10.31          23 a1          9.77            2.7
       2 b2        -14.67          19 a1          5.25            2.0
      13 a1        -19.30           4 b2          1.11            1.8
       2 b2        -14.67          18 a1          4.80            1.5
       2 a2        -10.08          19 b1         13.87            1.4
      12 a1        -21.26           4 b2          1.11            1.4
       2 a2        -10.08          14 b1          8.12            1.0
 

 S^2 expectation value:                     2.00000000


 Change of electron number:

             0.000000


 Electric transition dipole moment (velocity rep.):

    x        0.000000        Norm:                  0.951503
    y        0.951503
    z        0.000000        Norm / debye:          2.418498


 Electric transition dipole moment (length rep.):

    x        0.000000        Norm:                  0.909980
    y        0.909980
    z        0.000000        Norm / debye:          2.312957


 Magnetic transition dipole moment / i:

    x        0.003263        Norm:                  0.003263
    y        0.000000
    z        0.000000        Norm / Bohr mag.:      0.894334


 Electric quadrupole transition moment:

   xx        0.000000
   yy        0.000000        1/3*trace:             0.000000
   zz        0.000000
   xy        0.000000
   xz        0.000000        Anisotropy:            1.242385
   yz       -0.717291


    ------------------------------------------------------------------------
         total  cpu-time : 37 minutes and 56 seconds
         total wall-time : 37 minutes and 58 seconds
    ------------------------------------------------------------------------


   ****  escf : all done  ****


    2024-02-12 15:17:14.219 

