       2
 i =        5, E =      -100.3912794981
  F         3.5337950833        4.0000000098        4.0000000060
  H         4.4662057308        3.9999999902        3.9999999940
