
                                 *****************
                                 * O   R   C   A *
                                 *****************

                                            #,                                       
                                            ###                                      
                                            ####                                     
                                            #####                                    
                                            ######                                   
                                           ########,                                 
                                     ,,################,,,,,                         
                               ,,#################################,,                 
                          ,,##########################################,,             
                       ,#########################################, ''#####,          
                    ,#############################################,,   '####,        
                  ,##################################################,,,,####,       
                ,###########''''           ''''###############################       
              ,#####''   ,,,,##########,,,,          '''####'''          '####       
            ,##' ,,,,###########################,,,                        '##       
           ' ,,###''''                  '''############,,,                           
         ,,##''                                '''############,,,,        ,,,,,,###''
      ,#''                                            '''#######################'''  
     '                                                          ''''####''''         
             ,#######,   #######,   ,#######,      ##                                
            ,#'     '#,  ##    ##  ,#'     '#,    #''#        ######   ,####,        
            ##       ##  ##   ,#'  ##            #'  '#       #        #'  '#        
            ##       ##  #######   ##           ,######,      #####,   #    #        
            '#,     ,#'  ##    ##  '#,     ,#' ,#      #,         ##   #,  ,#        
             '#######'   ##     ##  '#######'  #'      '#     #####' # '####'        



                  #######################################################
                  #                        -***-                        #
                  #          Department of theory and spectroscopy      #
                  #    Directorship and core code : Frank Neese         #
                  #        Max Planck Institute fuer Kohlenforschung    #
                  #                Kaiser Wilhelm Platz 1               #
                  #                 D-45470 Muelheim/Ruhr               #
                  #                      Germany                        #
                  #                                                     #
                  #                  All rights reserved                #
                  #                        -***-                        #
                  #######################################################


                         Program Version 5.0.4 -  RELEASE  -


 With contributions from (in alphabetic order):
   Daniel Aravena         : Magnetic Suceptibility
   Michael Atanasov       : Ab Initio Ligand Field Theory (pilot matlab implementation)
   Alexander A. Auer      : GIAO ZORA, VPT2 properties, NMR spectrum
   Ute Becker             : Parallelization
   Giovanni Bistoni       : ED, misc. LED, open-shell LED, HFLD
   Martin Brehm           : Molecular dynamics
   Dmytro Bykov           : SCF Hessian
   Vijay G. Chilkuri      : MRCI spin determinant printing, contributions to CSF-ICE
   Dipayan Datta          : RHF DLPNO-CCSD density
   Achintya Kumar Dutta   : EOM-CC, STEOM-CC
   Dmitry Ganyushin       : Spin-Orbit,Spin-Spin,Magnetic field MRCI
   Miquel Garcia          : C-PCM and meta-GGA Hessian, CC/C-PCM, Gaussian charge scheme
   Yang Guo               : DLPNO-NEVPT2, F12-NEVPT2, CIM, IAO-localization
   Andreas Hansen         : Spin unrestricted coupled pair/coupled cluster methods
   Benjamin Helmich-Paris : MC-RPA, TRAH-SCF, COSX integrals
   Lee Huntington         : MR-EOM, pCC
   Robert Izsak           : Overlap fitted RIJCOSX, COSX-SCS-MP3, EOM
   Marcus Kettner         : VPT2
   Christian Kollmar      : KDIIS, OOCD, Brueckner-CCSD(T), CCSD density, CASPT2, CASPT2-K
   Simone Kossmann        : Meta GGA functionals, TD-DFT gradient, OOMP2, MP2 Hessian
   Martin Krupicka        : Initial AUTO-CI
   Lucas Lang             : DCDCAS
   Marvin Lechner         : AUTO-CI (C++ implementation), FIC-MRCC
   Dagmar Lenk            : GEPOL surface, SMD
   Dimitrios Liakos       : Extrapolation schemes; Compound Job, initial MDCI parallelization
   Dimitrios Manganas     : Further ROCIS development; embedding schemes
   Dimitrios Pantazis     : SARC Basis sets
   Anastasios Papadopoulos: AUTO-CI, single reference methods and gradients
   Taras Petrenko         : DFT Hessian,TD-DFT gradient, ASA, ECA, R-Raman, ABS, FL, XAS/XES, NRVS
   Peter Pinski           : DLPNO-MP2, DLPNO-MP2 Gradient
   Christoph Reimann      : Effective Core Potentials
   Marius Retegan         : Local ZFS, SOC
   Christoph Riplinger    : Optimizer, TS searches, QM/MM, DLPNO-CCSD(T), (RO)-DLPNO pert. Triples
   Tobias Risthaus        : Range-separated hybrids, TD-DFT gradient, RPA, STAB
   Michael Roemelt        : Original ROCIS implementation
   Masaaki Saitow         : Open-shell DLPNO-CCSD energy and density
   Barbara Sandhoefer     : DKH picture change effects
   Avijit Sen             : IP-ROCIS
   Kantharuban Sivalingam : CASSCF convergence, NEVPT2, FIC-MRCI
   Bernardo de Souza      : ESD, SOC TD-DFT
   Georgi Stoychev        : AutoAux, RI-MP2 NMR, DLPNO-MP2 response
   Willem Van den Heuvel  : Paramagnetic NMR
   Boris Wezisla          : Elementary symmetry handling
   Frank Wennmohs         : Technical directorship


 We gratefully acknowledge several colleagues who have allowed us to
 interface, adapt or use parts of their codes:
   Stefan Grimme, W. Hujo, H. Kruse, P. Pracht,  : VdW corrections, initial TS optimization,
                  C. Bannwarth, S. Ehlert          DFT functionals, gCP, sTDA/sTD-DF
   Ed Valeev, F. Pavosevic, A. Kumar             : LibInt (2-el integral package), F12 methods
   Garnet Chan, S. Sharma, J. Yang, R. Olivares  : DMRG
   Ulf Ekstrom                                   : XCFun DFT Library
   Mihaly Kallay                                 : mrcc  (arbitrary order and MRCC methods)
   Jiri Pittner, Ondrej Demel                    : Mk-CCSD
   Frank Weinhold                                : gennbo (NPA and NBO analysis)
   Christopher J. Cramer and Donald G. Truhlar   : smd solvation model
   Lars Goerigk                                  : TD-DFT with DH, B97 family of functionals
   V. Asgeirsson, H. Jonsson                     : NEB implementation
   FAccTs GmbH                                   : IRC, NEB, NEB-TS, DLPNO-Multilevel, CI-OPT
                                                   MM, QMMM, 2- and 3-layer-ONIOM, Crystal-QMMM,
                                                   LR-CPCM, SF, NACMEs, symmetry and pop. for TD-DFT,
                                                   nearIR, NL-DFT gradient (VV10), updates on ESD,
                                                   ML-optimized integration grids
   S Lehtola, MJT Oliveira, MAL Marques          : LibXC Library
   Liviu Ungur et al                             : ANISO software


 Your calculation uses the libint2 library for the computation of 2-el integrals
 For citations please refer to: http://libint.valeyev.net

 Your ORCA version has been built with support for libXC version: 5.1.0
 For citations please refer to: https://tddft.org/programs/libxc/

 This ORCA versions uses:
   CBLAS   interface :  Fast vector & matrix operations
   LAPACKE interface :  Fast linear algebra routines
   SCALAPACK package :  Parallel linear algebra routines
   Shared memory     :  Shared parallel matrices
   BLAS/LAPACK       :  OpenBLAS 0.3.15  USE64BITINT DYNAMIC_ARCH NO_AFFINITY SkylakeX SINGLE_THREADED
        Core in use  :  SkylakeX
   Copyright (c) 2011-2014, The OpenBLAS Project


Reading of a custom orbital basis requested
Basis file: ../../../basis_orca
READING GTO-BASIS: HYDROGEN
READING GTO-BASIS: CARBON
READING GTO-BASIS: OXYGEN
READING GTO-BASIS: FLUORINE
READING GTO-BASIS: SULFUR
READING GTO-BASIS: CHLORINE
READING GTO-BASIS: SELENIUM
READING GTO-BASIS: BROMINE
READING GTO-BASIS: TELLURIUM
READING GTO-BASIS: IODINE
Basis read successfully!

================================================================================

----- Orbital basis set information -----
Basis read from file: ../../../basis_orca

================================================================================
                                        WARNINGS
                       Please study these warnings very carefully!
================================================================================

INFO   : Checking CIS options ...

WARNING: (CIS/TDDFT): Spin-orbit needs TRIPLETS set to TRUE
  ===> : ajusting flags

WARNING: CIS/ROCIS methods need fully converged wavefunctions
  ===> : Setting SCFConvForced true
         You can overwrite this default with %scf ConvForced false 


INFO   : the flag for use of the SHARK integral package has been found!

================================================================================
                                       INPUT FILE
================================================================================
NAME = orca.inp
|  1> !PBE0 nososcf NoRI
|  2> %SCF Guess HCore
|  3>      DIISMaxIt -1
|  4> end
|  5> %TDDFT NROOTS 10
|  6>        DOSOC TRUE
|  7> end
|  8> %basis
|  9>         GTOName "../../../basis_orca"
| 10> end
| 11> * xyz 0 1  
| 12> F         3.5337950833        4.0000000098        4.0000000060
| 13>   H         4.4662057308        3.9999999902        3.9999999940
| 14> *
| 15> 
| 16>                          ****END OF INPUT****
================================================================================

                       ****************************
                       * Single Point Calculation *
                       ****************************

---------------------------------
CARTESIAN COORDINATES (ANGSTROEM)
---------------------------------
  F      3.533795    4.000000    4.000000
  H      4.466206    4.000000    4.000000

----------------------------
CARTESIAN COORDINATES (A.U.)
----------------------------
  NO LB      ZA    FRAG     MASS         X           Y           Z
   0 F     9.0000    0    18.998    6.677905    7.558905    7.558905
   1 H     1.0000    0     1.008    8.439906    7.558905    7.558905

--------------------------------
INTERNAL COORDINATES (ANGSTROEM)
--------------------------------
 F      0   0   0     0.000000000000     0.00000000     0.00000000
 H      1   0   0     0.932410647500     0.00000000     0.00000000

---------------------------
INTERNAL COORDINATES (A.U.)
---------------------------
 F      0   0   0     0.000000000000     0.00000000     0.00000000
 H      1   0   0     1.762000768127     0.00000000     0.00000000

---------------------
BASIS SET INFORMATION
---------------------
There are 2 groups of distinct atoms

 Group   1 Type F   : 10s6p2d1f contracted to 5s3p2d1f pattern {52111/411/11/1}
 Group   2 Type H   : 5s2p1d contracted to 3s2p1d pattern {311/11/1}

Atom   0F    basis set group =>   1
Atom   1H    basis set group =>   2
------------------------------------------------------------------------------
                           ORCA GTO INTEGRAL CALCULATION
------------------------------------------------------------------------------
------------------------------------------------------------------------------
                   ___                                                        
                  /   \      - P O W E R E D   B Y -                         
                 /     \                                                     
                 |  |  |   _    _      __       _____    __    __             
                 |  |  |  | |  | |    /  \     |  _  \  |  |  /  |          
                  \  \/   | |  | |   /    \    | | | |  |  | /  /          
                 / \  \   | |__| |  /  /\  \   | |_| |  |  |/  /          
                |  |  |   |  __  | /  /__\  \  |    /   |      \           
                |  |  |   | |  | | |   __   |  |    \   |  |\   \          
                \     /   | |  | | |  |  |  |  | |\  \  |  | \   \       
                 \___/    |_|  |_| |__|  |__|  |_| \__\ |__|  \__/        
                                                                              
                      - O R C A' S   B I G   F R I E N D -                    
                                      &                                       
                       - I N T E G R A L  F E E D E R -                       
                                                                              
 v1 FN, 2020, v2 2021                                                         
------------------------------------------------------------------------------


Reading SHARK input file orca.SHARKINP.tmp ... ok
----------------------
SHARK INTEGRAL PACKAGE
----------------------

Number of atoms                             ...      2
Number of basis functions                   ...     45
Number of shells                            ...     17
Maximum angular momentum                    ...      3
Integral batch strategy                     ... SHARK/LIBINT Hybrid
RI-J (if used) integral strategy            ... SPLIT-RIJ (Revised 2003 algorithm where possible)
Printlevel                                  ...      1
Contraction scheme used                     ... SEGMENTED contraction
Coulomb Range Separation                    ... NOT USED
Exchange Range Separation                   ... NOT USED
Finite Nucleus Model                        ... NOT USED
Auxiliary Coulomb fitting basis             ... NOT available
Auxiliary J/K fitting basis                 ... NOT available
Auxiliary Correlation fitting basis         ... NOT available
Auxiliary 'external' fitting basis          ... NOT available
Integral threshold                          ...     1.000000e-10
Primitive cut-off                           ...     1.000000e-11
Primitive pair pre-selection threshold      ...     1.000000e-11

Calculating pre-screening integrals         ... done (  0.0 sec) Dimension = 17
Organizing shell pair data                  ... done (  0.0 sec)
Shell pair information
Total number of shell pairs                 ...       153
Shell pairs after pre-screening             ...       153
Total number of primitive shell pairs       ...       398
Primitive shell pairs kept                  ...       390
          la=0 lb=0:     36 shell pairs
          la=1 lb=0:     40 shell pairs
          la=1 lb=1:     15 shell pairs
          la=2 lb=0:     24 shell pairs
          la=2 lb=1:     15 shell pairs
          la=2 lb=2:      6 shell pairs
          la=3 lb=0:      8 shell pairs
          la=3 lb=1:      5 shell pairs
          la=3 lb=2:      3 shell pairs
          la=3 lb=3:      1 shell pairs

Calculating one electron integrals          ... done (  0.0 sec)
Calculating Nuclear repulsion               ... done (  0.0 sec) ENN=      5.107829782371 Eh

SHARK setup successfully completed in   0.1 seconds

Maximum memory used throughout the entire GTOINT-calculation: 11.7 MB
-------------------------------------------------------------------------------
                                 ORCA SCF
-------------------------------------------------------------------------------

------------
SCF SETTINGS
------------
Hamiltonian:
 Density Functional     Method          .... DFT(GTOs)
 Exchange Functional    Exchange        .... PBE
   PBE kappa parameter   XKappa         ....  0.804000
   PBE mue parameter    XMuePBE         ....  0.219520
 Correlation Functional Correlation     .... PBE
   PBE beta parameter  CBetaPBE         ....  0.066725
 LDA part of GGA corr.  LDAOpt          .... PW91-LDA
 Gradients option       PostSCFGGA      .... off
 Hybrid DFT is turned on
   Fraction HF Exchange ScalHFX         ....  0.250000
   Scaling of DF-GGA-X  ScalDFX         ....  0.750000
   Scaling of DF-GGA-C  ScalDFC         ....  1.000000
   Scaling of DF-LDA-C  ScalLDAC        ....  1.000000
   Perturbative correction              ....  0.000000
   Density functional embedding theory  .... OFF
   NL short-range parameter             ....  6.900000


General Settings:
 Integral files         IntName         .... orca
 Hartree-Fock type      HFTyp           .... RHF
 Total Charge           Charge          ....    0
 Multiplicity           Mult            ....    1
 Number of Electrons    NEL             ....   10
 Basis Dimension        Dim             ....   45
 Nuclear Repulsion      ENuc            ....      5.1078297824 Eh

Convergence Acceleration:
 DIIS                   CNVDIIS         .... on
   Start iteration      DIISMaxIt       ....    -1
   Startup error        DIISStart       ....  0.200000
   # of expansion vecs  DIISMaxEq       ....     5
   Bias factor          DIISBfac        ....   1.050
   Max. coefficient     DIISMaxC        ....  10.000
 Trust-Rad. Augm. Hess. CNVTRAH         .... auto
   Auto Start mean grad. ratio tolernc. ....  1.125000
   Auto Start start iteration           ....    20
   Auto Start num. interpolation iter.  ....    10
   Max. Number of Micro iterations      ....    16
   Max. Number of Macro iterations      .... Maxiter - #DIIS iter
   Number of Davidson start vectors     ....     2
   Converg. threshold I  (grad. norm)   ....   5.000e-05
   Converg. threshold II (energy diff.) ....   1.000e-06
   Grad. Scal. Fac. for Micro threshold ....   0.100
   Minimum threshold for Micro iter.    ....   0.010
   NR start threshold (gradient norm)   ....   0.001
   Initial trust radius                 ....   0.400
   Minimum AH scaling param. (alpha)    ....   1.000
   Maximum AH scaling param. (alpha)    .... 1000.000
   Orbital update algorithm             .... Taylor
   White noise on init. David. guess    .... on
   Maximum white noise                  ....   0.010
   Quad. conv. algorithm                .... NR
 SOSCF                  CNVSOSCF        .... off
 Level Shifting         CNVShift        .... on
   Level shift para.    LevelShift      ....    0.2500
   Turn off err/grad.   ShiftErr        ....    0.0010
 Zerner damping         CNVZerner       .... off
 Static damping         CNVDamp         .... on
   Fraction old density DampFac         ....    0.7000
   Max. Damping (<1)    DampMax         ....    0.9800
   Min. Damping (>=0)   DampMin         ....    0.0000
   Turn off err/grad.   DampErr         ....    0.1000
 Fernandez-Rico         CNVRico         .... off

SCF Procedure:
 Maximum # iterations   MaxIter         ....   125
 SCF integral mode      SCFMode         .... Direct
   Integral package                     .... SHARK and LIBINT hybrid scheme
 Reset frequency        DirectResetFreq ....    20
 Integral Threshold     Thresh          ....  1.000e-10 Eh
 Primitive CutOff       TCut            ....  1.000e-11 Eh

Convergence Tolerance:
 Convergence Check Mode ConvCheckMode   .... Total+1el-Energy
 Convergence forced     ConvForced      .... 1
 Energy Change          TolE            ....  1.000e-06 Eh
 1-El. energy change                    ....  1.000e-03 Eh
 DIIS Error             TolErr          ....  1.000e-06


Diagonalization of the overlap matrix:
Smallest eigenvalue                        ... 3.959e-03
Time for diagonalization                   ...    0.001 sec
Threshold for overlap eigenvalues          ... 1.000e-08
Number of eigenvalues below threshold      ... 0
Time for construction of square roots      ...    0.002 sec
Total time needed                          ...    0.002 sec

--------------------
INITIAL GUESS: HCORE
--------------------
                      -----------------
                      INTIAL GUESS DONE 
                      -----------------
-------------------
DFT GRID GENERATION
-------------------

General Integration Accuracy     IntAcc      ... 4.388
Radial Grid Type                 RadialGrid  ... OptM3 with GC (2021)
Angular Grid (max. ang.)         AngularGrid ... 4 (Lebedev-302)
Angular grid pruning method      GridPruning ... 4 (adaptive)
Weight generation scheme         WeightScheme... Becke
Basis function cutoff            BFCut       ... 1.0000e-10
Integration weight cutoff        WCut        ... 1.0000e-14
Angular grids for H and He will be reduced by one unit
Partially contracted basis set               ... off
Rotationally invariant grid construction     ... off

Total number of grid points                  ...     9454
Total number of batches                      ...      149
Average number of points per batch           ...       63
Average number of grid points per atom       ...     4727
Time for grid setup =    0.040 sec

--------------
SCF ITERATIONS
--------------
ITER       Energy         Delta-E        Max-DP      RMS-DP      [F,P]     Damp
               ***  Starting incremental Fock matrix formation  ***
  0    -87.6603881641   0.000000000000 2.04770915  0.06968390  3.2300371 0.7000
  1    -93.1688071692  -5.508419005067 1.05015215  0.03614408  1.7833255 0.7000
                               ***Turning on DIIS***
  2    -95.2003028394  -2.031495670286 0.92612016  0.02978138  1.0737655 0.7000
  3    -96.7863649829  -1.586062143486 0.65164041  0.02081255  0.7136775 0.7000
  4    -97.8844246254  -1.098059642443 0.45641005  0.01455202  0.5330966 0.7000
  5    -98.6441385600  -0.759713934601 0.31944739  0.01016946  0.3778101 0.7000
  6    -99.1714393602  -0.527300800210 0.22357277  0.00711049  0.2615038 0.7000
  7    -99.5386382848  -0.367198924622 0.15648080  0.00497668  0.1821298 0.7000
  8    -99.7948184492  -0.256180164373 0.10953536  0.00348249  0.1267094 0.7000
  9    -99.9737409512  -0.178922501993 0.25557031  0.00812763  0.0900808 0.0000
 10   -100.3899951955  -0.416254244356 0.00108493  0.00006958  0.0018284 0.0000
 11   -100.3899966258  -0.000001430272 0.00038348  0.00002034  0.0014612 0.0000
 12   -100.3899981007  -0.000001474936 0.00005101  0.00000356  0.0001619 0.0000
                 **** Energy Check signals convergence ****

               *****************************************************
               *                     SUCCESS                       *
               *           SCF CONVERGED AFTER  13 CYCLES          *
               *****************************************************


----------------
TOTAL SCF ENERGY
----------------

Total Energy       :         -100.38999813 Eh           -2731.75073 eV

Components:
Nuclear Repulsion  :            5.10782978 Eh             138.99111 eV
Electronic Energy  :         -105.49782791 Eh           -2870.74184 eV
One Electron Energy:         -150.41739749 Eh           -4093.06547 eV
Two Electron Energy:           44.91956958 Eh            1222.32363 eV

Virial components:
Potential Energy   :         -200.51192755 Eh           -5456.20694 eV
Kinetic Energy     :          100.12192942 Eh            2724.45621 eV
Virial Ratio       :            2.00267742


DFT components:
N(Alpha)           :        4.999998880419 electrons
N(Beta)            :        4.999998880419 electrons
N(Total)           :        9.999997760837 electrons
E(X)               :       -7.796425704777 Eh       
E(C)               :       -0.336866472873 Eh       
E(XC)              :       -8.133292177650 Eh       
DFET-embed. en.    :        0.000000000000 Eh       

---------------
SCF CONVERGENCE
---------------

  Last Energy change         ...   -2.6053e-08  Tolerance :   1.0000e-06
  Last MAX-Density change    ...    8.1160e-06  Tolerance :   1.0000e-05
  Last RMS-Density change    ...    4.4218e-07  Tolerance :   1.0000e-06
  Last DIIS Error            ...    1.7111e-05  Tolerance :   1.0000e-06

             **** THE GBW FILE WAS UPDATED (orca.gbw) ****
             **** DENSITY orca.scfp WAS UPDATED ****
             **** ENERGY FILE WAS UPDATED (orca.en.tmp) ****
             **** THE GBW FILE WAS UPDATED (orca.gbw) ****
             **** DENSITY orca.scfp WAS UPDATED ****
----------------
ORBITAL ENERGIES
----------------

  NO   OCC          E(Eh)            E(eV) 
   0   2.0000     -24.756127      -673.6485 
   1   2.0000      -1.223525       -33.2938 
   2   2.0000      -0.560722       -15.2580 
   3   2.0000      -0.426519       -11.6062 
   4   2.0000      -0.426516       -11.6061 
   5   0.0000       0.039069         1.0631 
   6   0.0000       0.375338        10.2135 
   7   0.0000       0.503471        13.7001 
   8   0.0000       0.535137        14.5618 
   9   0.0000       0.535138        14.5618 
  10   0.0000       0.656690        17.8694 
  11   0.0000       0.656691        17.8695 
  12   0.0000       0.944966        25.7138 
  13   0.0000       1.321582        35.9621 
  14   0.0000       1.839523        50.0560 
  15   0.0000       2.009254        54.6746 
  16   0.0000       2.009254        54.6746 
  17   0.0000       2.045697        55.6662 
  18   0.0000       2.045698        55.6663 
  19   0.0000       2.401083        65.3368 
  20   0.0000       2.507639        68.2363 
  21   0.0000       2.507640        68.2364 
  22   0.0000       3.050011        82.9950 
  23   0.0000       3.265791        88.8667 
  24   0.0000       3.265792        88.8667 
  25   0.0000       3.313768        90.1722 
  26   0.0000       3.313768        90.1722 
  27   0.0000       4.224894       114.9652 
  28   0.0000       4.274806       116.3234 
  29   0.0000       4.274807       116.3234 
  30   0.0000       4.775671       129.9526 
  31   0.0000       6.249900       170.0684 
  32   0.0000       7.166741       195.0169 
  33   0.0000       7.166741       195.0169 
  34   0.0000       7.327682       199.3964 
  35   0.0000       7.327684       199.3964 
  36   0.0000       7.944329       216.1762 
  37   0.0000       8.064880       219.4565 
  38   0.0000       8.064882       219.4566 
  39   0.0000       8.575560       233.3529 
  40   0.0000       8.575599       233.3539 
  41   0.0000       9.054200       246.3773 
  42   0.0000       9.054202       246.3774 
  43   0.0000       9.342262       254.2159 
  44   0.0000      78.151302      2126.6050 

                    ********************************
                    * MULLIKEN POPULATION ANALYSIS *
                    ********************************

-----------------------
MULLIKEN ATOMIC CHARGES
-----------------------
   0 F :   -0.333057
   1 H :    0.333057
Sum of atomic charges:    0.0000000

--------------------------------
MULLIKEN REDUCED ORBITAL CHARGES
--------------------------------
  0 F s       :     3.913119  s :     3.913119
      pz      :     1.956901  p :     5.411785
      px      :     1.497981
      py      :     1.956903
      dz2     :     0.001469  d :     0.007720
      dxz     :     0.000921
      dyz     :     0.000000
      dx2y2   :     0.004408
      dxy     :     0.000921
      f0      :     0.000016  f :     0.000434
      f+1     :     0.000131
      f-1     :     0.000003
      f+2     :     0.000027
      f-2     :     0.000000
      f+3     :     0.000218
      f-3     :     0.000040
  1 H s       :     0.544342  s :     0.544342
      pz      :     0.037466  p :     0.109666
      px      :     0.034736
      py      :     0.037464
      dz2     :     0.000899  d :     0.012934
      dxz     :     0.004669
      dyz     :     0.000000
      dx2y2   :     0.002697
      dxy     :     0.004669


                     *******************************
                     * LOEWDIN POPULATION ANALYSIS *
                     *******************************

----------------------
LOEWDIN ATOMIC CHARGES
----------------------
   0 F :    0.274574
   1 H :   -0.274574

-------------------------------
LOEWDIN REDUCED ORBITAL CHARGES
-------------------------------
  0 F s       :     3.489518  s :     3.489518
      pz      :     1.837416  p :     5.223966
      px      :     1.549132
      py      :     1.837418
      dz2     :     0.002533  d :     0.011083
      dxz     :     0.000474
      dyz     :     0.000000
      dx2y2   :     0.007600
      dxy     :     0.000475
      f0      :     0.000054  f :     0.000859
      f+1     :     0.000215
      f-1     :     0.000009
      f+2     :     0.000090
      f-2     :     0.000000
      f+3     :     0.000358
      f-3     :     0.000134
  1 H s       :     0.667252  s :     0.667252
      pz      :     0.119563  p :     0.479098
      px      :     0.239974
      py      :     0.119561
      dz2     :     0.010855  d :     0.128225
      dxz     :     0.042403
      dyz     :     0.000000
      dx2y2   :     0.032564
      dxy     :     0.042403


                      *****************************
                      * MAYER POPULATION ANALYSIS *
                      *****************************

  NA   - Mulliken gross atomic population
  ZA   - Total nuclear charge
  QA   - Mulliken gross atomic charge
  VA   - Mayer's total valence
  BVA  - Mayer's bonded valence
  FA   - Mayer's free valence

  ATOM       NA         ZA         QA         VA         BVA        FA
  0 F      9.3331     9.0000    -0.3331     0.9944     0.9944     0.0000
  1 H      0.6669     1.0000     0.3331     0.9944     0.9944     0.0000

  Mayer bond orders larger than 0.100000
B(  0-F ,  1-H ) :   0.9944 

-------
TIMINGS
-------

Total SCF time: 0 days 0 hours 0 min 1 sec 

Total time                  ....       1.064 sec
Sum of individual times     ....       0.951 sec  ( 89.4%)

Fock matrix formation       ....       0.898 sec  ( 84.4%)
  XC integration            ....       0.538 sec  ( 59.9% of F)
    Basis function eval.    ....       0.186 sec  ( 34.5% of XC)
    Density eval.           ....       0.074 sec  ( 13.7% of XC)
    XC-Functional eval.     ....       0.128 sec  ( 23.8% of XC)
    XC-Potential eval.      ....       0.108 sec  ( 20.2% of XC)
Diagonalization             ....       0.006 sec  (  0.6%)
Density matrix formation    ....       0.000 sec  (  0.0%)
Population analysis         ....       0.002 sec  (  0.2%)
Initial guess               ....       0.001 sec  (  0.1%)
Orbital Transformation      ....       0.000 sec  (  0.0%)
Orbital Orthonormalization  ....       0.000 sec  (  0.0%)
DIIS solution               ....       0.004 sec  (  0.4%)
Grid generation             ....       0.040 sec  (  3.8%)

Maximum memory used throughout the entire SCF-calculation: 227.8 MB
------------------------------------------------------------------------------
                        ORCA TD-DFT/TDA CALCULATION
------------------------------------------------------------------------------

Input orbitals are from        ... orca.gbw
CI-vector output               ... orca.cis
Tamm-Dancoff approximation     ... operative
CIS-Integral strategy          ... AO-integrals
Integral handling              ... AO integral Direct
Max. core memory used          ... 512 MB
Reference state                ... RHF
Generation of triplets         ... on
Follow IRoot                   ... off
Number of operators            ... 1
Orbital ranges used for CIS calculation:
 Operator 0:  Orbitals   1...  4  to   5... 44
XAS localization array:
 Operator 0:  Orbitals  -1... -1

-------------------
XC-INTEGRATION GRID
-------------------

General Integration Accuracy     IntAcc      ... 3.467
Radial Grid Type                 RadialGrid  ... OptM3 with GC (2021)
Angular Grid (max. ang.)         AngularGrid ... 1 (Lebedev-50)
Angular grid pruning method      GridPruning ... 4 (adaptive)
Weight generation scheme         WeightScheme... Becke
Basis function cutoff            BFCut       ... 1.0000e-10
Integration weight cutoff        WCut        ... 1.0000e-14
Angular grids for H and He will be reduced by one unit
Partially contracted basis set               ... off
Rotationally invariant grid construction     ... off

Total number of grid points                  ...     1401
Total number of batches                      ...       23
Average number of points per batch           ...       60
Average number of grid points per atom       ...      700

---------------
TD-DFT XC SETUP
---------------

DFT calculation                         ... on
Name of the grid file                   ... orca.grid_cis.tmp
Exchange functional (TD-DFT)            ... PBE
   PBE kappa parameter  XKappa (TD-DFT) ...  0.804000
   PBE mue parameter   XMuePBE (TD-DFT) ...  0.219520
Correlation functional (TD-DFT)         ... PBE
   PBE beta parameter CBetaPBE (TD-DFT) ...  0.066725
 LDA part of GGA corr.  LDAOpt (TD-DFT) ... PW91-LDA
Hybrid DFT                              ... on
   Exchange mixing (TD-DFT)             ...  0.250
   GGA exch. scaling (TD-DFT)           ...  0.750
   GGA corr. scaling (TD-DFT)           ...  1.000

Building densities             ... done
Calculating rho(r) on the grid ... done
Building xc-kernel on the grid ... done
                    *** TD-DFT CALCULATION INITIALIZED ***

------------------------
DAVIDSON-DIAGONALIZATION
------------------------

Dimension of the eigenvalue problem            ...    160
Number of roots to be determined               ...     10
Maximum size of the expansion space            ...    100
Maximum number of iterations                   ...    100
Convergence tolerance for the residual         ...    1.000e-06
Convergence tolerance for the energies         ...    1.000e-06
Orthogonality tolerance                        ...    1.000e-14
Level Shift                                    ...    0.000e+00
Constructing the preconditioner                ... o.k.
Building the initial guess                     ... o.k.
Number of trial vectors determined             ...    100


                       ****Iteration    0****

   Memory handling for direct AO based CIS:
   Memory per vector needed      ...     1 MB
   Memory needed                 ...     1 MB
   Memory available              ...   512 MB
   Number of vectors per batch   ...   512
   Number of batches             ...     1
   Time for densities:            0.001
   SHARK[1a]
   Time for J+K (Direct):         0.164
   Time for XC-Integration:       0.062
   Time for Sigma-Completion:     0.002
   Size of expansion space: 30
   Lowest Energy          :     0.382382592250
   Maximum Energy change  :     0.851442719014 (vector 9)
   Maximum residual norm  :     0.004461390709

                       ****Iteration    1****
   Time for densities:            0.000
   SHARK[1a]
   Time for J+K (Direct):         0.081
   Time for XC-Integration:       0.024
   Time for Sigma-Completion:     0.001
   Size of expansion space: 40
   Lowest Energy          :     0.381693190180
   Maximum Energy change  :     0.001881702053 (vector 2)
   Maximum residual norm  :     0.000027297490

                       ****Iteration    2****
   Time for densities:            0.000
   SHARK[1a]
   Time for J+K (Direct):         0.081
   Time for XC-Integration:       0.024
   Time for Sigma-Completion:     0.001
   Size of expansion space: 50
   Lowest Energy          :     0.381692139780
   Maximum Energy change  :     0.000006952635 (vector 2)
   Maximum residual norm  :     0.000000031307

      *** CONVERGENCE OF RESIDUAL NORM REACHED ***

Storing the converged CI vectors               ... orca.cis1

                 *** DAVIDSON DONE ***

Total time for solving the CIS problem:     0.561sec

------------------------------------
TD-DFT/TDA EXCITED STATES (SINGLETS)
------------------------------------

the weight of the individual excitations are printed if larger than 1.0e-02

STATE  1:  E=   0.381692 au     10.386 eV    83771.7 cm**-1 <S**2> =   0.000000
     4a ->   5a  :     0.995737 (c=  0.99786623)

STATE  2:  E=   0.381695 au     10.386 eV    83772.4 cm**-1 <S**2> =   0.000000
     3a ->   5a  :     0.995737 (c= -0.99786622)

STATE  3:  E=   0.544358 au     14.813 eV   119472.8 cm**-1 <S**2> =   0.000000
     2a ->   5a  :     0.971107 (c=  0.98544739)
     3a ->   8a  :     0.010938 (c=  0.10458670)
     4a ->   9a  :     0.010939 (c=  0.10458825)

STATE  4:  E=   0.705742 au     19.204 eV   154892.5 cm**-1 <S**2> =   0.000000
     4a ->   6a  :     0.991873 (c=  0.99592833)

STATE  5:  E=   0.705745 au     19.204 eV   154893.2 cm**-1 <S**2> =   0.000000
     3a ->   6a  :     0.991873 (c= -0.99592830)

STATE  6:  E=   0.833750 au     22.687 eV   182987.0 cm**-1 <S**2> =   0.000000
     4a ->   7a  :     0.994720 (c= -0.99735641)

STATE  7:  E=   0.833753 au     22.688 eV   182987.6 cm**-1 <S**2> =   0.000000
     3a ->   7a  :     0.994719 (c= -0.99735619)

STATE  8:  E=   0.845441 au     23.006 eV   185552.8 cm**-1 <S**2> =   0.000000
     3a ->   9a  :     0.497893 (c=  0.70561529)
     4a ->   8a  :     0.498590 (c= -0.70610895)

STATE  9:  E=   0.850490 au     23.143 eV   186661.0 cm**-1 <S**2> =   0.000000
     3a ->   9a  :     0.499382 (c=  0.70666935)
     4a ->   8a  :     0.498685 (c=  0.70617621)

STATE 10:  E=   0.850866 au     23.153 eV   186743.5 cm**-1 <S**2> =   0.000000
     3a ->   8a  :     0.498950 (c= -0.70636397)
     4a ->   9a  :     0.499039 (c=  0.70642712)


                  ********************************
                  * Entering triplet calculation *
                  ********************************

------------------------
DAVIDSON-DIAGONALIZATION
------------------------

Dimension of the eigenvalue problem            ...    160
Number of roots to be determined               ...     10
Maximum size of the expansion space            ...    100
Maximum number of iterations                   ...    100
Convergence tolerance for the residual         ...    1.000e-06
Convergence tolerance for the energies         ...    1.000e-06
Orthogonality tolerance                        ...    1.000e-14
Level Shift                                    ...    0.000e+00
Constructing the preconditioner                ... o.k.
Building the initial guess                     ... o.k.
Number of trial vectors determined             ...    100


                       ****Iteration    0****
                <<< Triplet sigma vectors requested >>>

   Memory handling for direct AO based CIS:
   Memory per vector needed      ...     1 MB
   Memory needed                 ...     0 MB
   Memory available              ...   512 MB
   Number of vectors per batch   ...   512
   Number of batches             ...     1
   Time for densities:            0.001
   SHARK[2G] - ScalHFX=    0.250 ScalHFX_loc=    1.000 facx=    1.000
   Time for K (Direct):           0.132
   Time for XC-Integration:       0.062
   Time for Sigma-Completion:     0.002
   Size of expansion space: 30
   Lowest Energy          :     0.357786185726
   Maximum Energy change  :     0.817124210152 (vector 9)
   Maximum residual norm  :     0.008707027055

                       ****Iteration    1****
   Time for densities:            0.000
   SHARK[2G] - ScalHFX=    0.250 ScalHFX_loc=    1.000 facx=    1.000
   Time for K (Direct):           0.069
   Time for XC-Integration:       0.024
   Time for Sigma-Completion:     0.001
   Size of expansion space: 40
   Lowest Energy          :     0.357122390528
   Maximum Energy change  :     0.005420398807 (vector 5)
   Maximum residual norm  :     0.000023782874

                       ****Iteration    2****
   Time for densities:            0.000
   SHARK[2G] - ScalHFX=    0.250 ScalHFX_loc=    1.000 facx=    1.000
   Time for K (Direct):           0.069
   Time for XC-Integration:       0.024
   Time for Sigma-Completion:     0.001
   Size of expansion space: 50
   Lowest Energy          :     0.357121746288
   Maximum Energy change  :     0.000006245011 (vector 5)
   Maximum residual norm  :     0.000000020346

      *** CONVERGENCE OF RESIDUAL NORM REACHED ***

Storing the converged CI vectors               ... orca.cis3

                 *** DAVIDSON DONE ***

------------------------------------
TD-DFT/TDA EXCITED STATES (TRIPLETS)
------------------------------------

the weight of the individual excitations are printed if larger than 1.0e-02

STATE  1:  E=   0.357122 au      9.718 eV    78379.2 cm**-1 <S**2> =   2.000000
     4a ->   5a  :     0.987698 (c= -0.99383005)

STATE  2:  E=   0.357125 au      9.718 eV    78379.8 cm**-1 <S**2> =   2.000000
     3a ->   5a  :     0.987698 (c=  0.99382999)

STATE  3:  E=   0.470172 au     12.794 eV   103190.9 cm**-1 <S**2> =   2.000000
     2a ->   5a  :     0.963644 (c=  0.98165377)
     2a ->   6a  :     0.030611 (c= -0.17495927)

STATE  4:  E=   0.683941 au     18.611 eV   150107.8 cm**-1 <S**2> =   2.000000
     4a ->   6a  :     0.982611 (c= -0.99126732)

STATE  5:  E=   0.683944 au     18.611 eV   150108.4 cm**-1 <S**2> =   2.000000
     3a ->   6a  :     0.982611 (c=  0.99126737)

STATE  6:  E=   0.775162 au     21.093 eV   170128.3 cm**-1 <S**2> =   2.000000
     2a ->   5a  :     0.020050 (c= -0.14159888)
     2a ->   6a  :     0.450613 (c= -0.67127691)
     3a ->   8a  :     0.249683 (c= -0.49968274)
     4a ->   9a  :     0.249720 (c= -0.49972018)

STATE  7:  E=   0.795756 au     21.654 eV   174648.3 cm**-1 <S**2> =   2.000000
     2a ->   5a  :     0.012862 (c=  0.11341105)
     2a ->   6a  :     0.506385 (c=  0.71160699)
     3a ->   8a  :     0.234511 (c= -0.48426320)
     4a ->   9a  :     0.234588 (c= -0.48434312)

STATE  8:  E=   0.811983 au     22.095 eV   178209.7 cm**-1 <S**2> =   2.000000
     3a ->   8a  :     0.494759 (c= -0.70339074)
     4a ->   9a  :     0.494643 (c=  0.70330895)

STATE  9:  E=   0.812018 au     22.096 eV   178217.4 cm**-1 <S**2> =   2.000000
     3a ->   9a  :     0.494724 (c= -0.70336604)
     4a ->   8a  :     0.494820 (c= -0.70343437)

STATE 10:  E=   0.815947 au     22.203 eV   179079.6 cm**-1 <S**2> =   2.000000
     3a ->   7a  :     0.990376 (c=  0.99517627)

------------------------------
TD-DFT/TDA SPIN-ORBIT COUPLING
------------------------------

Calculating the spin-orbit integrals:             

Loading the effective charges         ... done
Entering the SOC calc. section        ... 
------------------------------------------------------------------------------
                         ORCA SPIN-ORBIT COUPLING CALCULATION
------------------------------------------------------------------------------

GBW file                                    ... orca.gbw
Input density                               ... orca.cisp0
Output integrals                            ... orca.cis
Operator type                               ... Mean-field/Effective potential
   One-Electron Terms                       ... 1
   Coulomb Contribution                     ... 4
   Exchange Contribution                    ... 3
   Correlation Contribution                 ... 0
   Maximum number of centers                ... 4
SHARK 1-electron  MaxCenter=4               ... done (  0.0 sec)
Evaluating Coulomb term analytically        ... 
SHARK 2-electron DoJ,X=1,1 MaxCenter=4      ... done (  0.4 sec)
Transforming the SOC integrals              ... done
Constructing the SOC matrix:                ... done
Diagonalizing the SOC matrix:               ... done

      --------------------------------------------------------------------------------
                      CALCULATED SOCME BETWEEN TRIPLETS AND SINGLETS                  
      --------------------------------------------------------------------------------
           Root                          <T|HSO|S>  (Re, Im) cm-1                     
         T      S             Z                     X                     Y           
      --------------------------------------------------------------------------------
         1      0    (   0.00 ,   -0.19 )    (   0.00 ,    0.00 )    (  -0.00 ,  -79.08 )
         1      1    (   0.00 ,    0.00 )    (   0.00 ,    0.00 )    (  -0.00 ,   -0.00 )
         1      2    (   0.00 ,   -0.00 )    (   0.00 ,  127.37 )    (  -0.00 ,    0.00 )
         1      3    (   0.00 ,    0.26 )    (   0.00 ,   -0.00 )    (  -0.00 ,  109.07 )
         1      4    (   0.00 ,    0.00 )    (   0.00 ,    0.00 )    (  -0.00 ,   -0.00 )
         1      5    (   0.00 ,    0.00 )    (   0.00 ,   -4.67 )    (  -0.00 ,   -0.00 )
         1      6    (   0.00 ,   -0.00 )    (   0.00 ,    0.00 )    (  -0.00 ,    0.00 )
         1      7    (   0.00 ,   -0.00 )    (   0.00 ,    1.39 )    (  -0.00 ,    0.00 )
         1      8    (   0.00 ,  -24.09 )    (   0.00 ,   -0.00 )    (  -0.00 ,    0.06 )
         1      9    (   0.00 ,   26.02 )    (   0.00 ,    0.00 )    (  -0.00 ,    0.06 )
         1     10    (   0.00 ,   -0.06 )    (   0.00 ,   -0.00 )    (  -0.00 ,   26.02 )
         2      0    (   0.00 ,   79.08 )    (   0.00 ,    0.00 )    (  -0.00 ,   -0.19 )
         2      1    (   0.00 ,    0.00 )    (   0.00 , -127.37 )    (  -0.00 ,   -0.00 )
         2      2    (   0.00 ,   -0.00 )    (   0.00 ,    0.00 )    (  -0.00 ,    0.00 )
         2      3    (   0.00 , -109.07 )    (   0.00 ,   -0.00 )    (  -0.00 ,    0.26 )
         2      4    (   0.00 ,   -0.00 )    (   0.00 ,    4.67 )    (  -0.00 ,    0.00 )
         2      5    (   0.00 ,   -0.00 )    (   0.00 ,    0.00 )    (  -0.00 ,   -0.00 )
         2      6    (   0.00 ,   -0.00 )    (   0.00 ,    1.39 )    (  -0.00 ,    0.00 )
         2      7    (   0.00 ,   -0.00 )    (   0.00 ,   -0.00 )    (  -0.00 ,   -0.00 )
         2      8    (   0.00 ,   -0.06 )    (   0.00 ,    0.00 )    (  -0.00 ,  -24.07 )
         2      9    (   0.00 ,    0.06 )    (   0.00 ,    0.00 )    (  -0.00 ,  -26.03 )
         2     10    (   0.00 ,   26.02 )    (   0.00 ,    0.00 )    (  -0.00 ,    0.06 )
         3      0    (   0.00 ,   -0.00 )    (   0.00 ,   -0.00 )    (  -0.00 ,   -0.00 )
         3      1    (   0.00 ,    0.26 )    (   0.00 ,   -0.00 )    (  -0.00 ,  106.95 )
         3      2    (   0.00 , -106.95 )    (   0.00 ,   -0.00 )    (  -0.00 ,    0.26 )
         3      3    (   0.00 ,    0.00 )    (   0.00 ,   -0.00 )    (  -0.00 ,    0.00 )
         3      4    (   0.00 ,   -0.03 )    (   0.00 ,    0.00 )    (  -0.00 ,  -12.27 )
         3      5    (   0.00 ,   12.27 )    (   0.00 ,    0.00 )    (  -0.00 ,   -0.03 )
         3      6    (   0.00 ,   -0.01 )    (   0.00 ,    0.00 )    (  -0.00 ,   -3.03 )
         3      7    (   0.00 ,   -3.03 )    (   0.00 ,   -0.00 )    (  -0.00 ,    0.01 )
         3      8    (   0.00 ,    0.00 )    (   0.00 ,   -1.84 )    (  -0.00 ,   -0.00 )
         3      9    (   0.00 ,    0.00 )    (   0.00 ,   -0.00 )    (  -0.00 ,    0.00 )
         3     10    (   0.00 ,   -0.00 )    (   0.00 ,    0.00 )    (  -0.00 ,    0.00 )
         4      0    (   0.00 ,    0.21 )    (   0.00 ,   -0.00 )    (  -0.00 ,   85.55 )
         4      1    (   0.00 ,   -0.00 )    (   0.00 ,    0.00 )    (  -0.00 ,   -0.00 )
         4      2    (   0.00 ,   -0.00 )    (   0.00 ,    4.79 )    (  -0.00 ,    0.00 )
         4      3    (   0.00 ,    0.03 )    (   0.00 ,   -0.00 )    (  -0.00 ,   12.00 )
         4      4    (   0.00 ,    0.00 )    (   0.00 ,    0.00 )    (  -0.00 ,   -0.00 )
         4      5    (   0.00 ,   -0.00 )    (   0.00 ,  127.27 )    (  -0.00 ,    0.00 )
         4      6    (   0.00 ,    0.00 )    (   0.00 ,   -0.00 )    (  -0.00 ,   -0.00 )
         4      7    (   0.00 ,   -0.00 )    (   0.00 ,    1.48 )    (  -0.00 ,    0.00 )
         4      8    (   0.00 ,   25.02 )    (   0.00 ,    0.00 )    (  -0.00 ,   -0.06 )
         4      9    (   0.00 ,  -30.63 )    (   0.00 ,   -0.00 )    (  -0.00 ,   -0.07 )
         4     10    (   0.00 ,    0.07 )    (   0.00 ,    0.00 )    (  -0.00 ,  -30.64 )
         5      0    (   0.00 ,  -85.55 )    (   0.00 ,   -0.00 )    (  -0.00 ,    0.21 )
         5      1    (   0.00 ,    0.00 )    (   0.00 ,   -4.79 )    (  -0.00 ,   -0.00 )
         5      2    (   0.00 ,   -0.00 )    (   0.00 ,    0.00 )    (  -0.00 ,   -0.00 )
         5      3    (   0.00 ,  -12.00 )    (   0.00 ,   -0.00 )    (  -0.00 ,    0.03 )
         5      4    (   0.00 ,    0.00 )    (   0.00 , -127.27 )    (  -0.00 ,   -0.00 )
         5      5    (   0.00 ,   -0.00 )    (   0.00 ,    0.00 )    (  -0.00 ,    0.00 )
         5      6    (   0.00 ,   -0.00 )    (   0.00 ,    1.48 )    (  -0.00 ,    0.00 )
         5      7    (   0.00 ,    0.00 )    (   0.00 ,    0.00 )    (  -0.00 ,    0.00 )
         5      8    (   0.00 ,    0.06 )    (   0.00 ,   -0.00 )    (  -0.00 ,   25.00 )
         5      9    (   0.00 ,   -0.07 )    (   0.00 ,   -0.00 )    (  -0.00 ,   30.65 )
         5     10    (   0.00 ,  -30.62 )    (   0.00 ,   -0.00 )    (  -0.00 ,   -0.07 )
         6      0    (   0.00 ,   -0.00 )    (   0.00 ,   -0.00 )    (  -0.00 ,   -0.00 )
         6      1    (   0.00 ,   -0.07 )    (   0.00 ,    0.00 )    (  -0.00 ,  -27.59 )
         6      2    (   0.00 ,   27.59 )    (   0.00 ,    0.00 )    (  -0.00 ,   -0.07 )
         6      3    (   0.00 ,   -0.00 )    (   0.00 ,    0.00 )    (  -0.00 ,    0.00 )
         6      4    (   0.00 ,   -0.13 )    (   0.00 ,    0.00 )    (  -0.00 ,  -52.04 )
         6      5    (   0.00 ,   52.05 )    (   0.00 ,    0.00 )    (  -0.00 ,   -0.13 )
         6      6    (   0.00 ,   -0.02 )    (   0.00 ,    0.00 )    (  -0.00 ,   -6.65 )
         6      7    (   0.00 ,   -6.65 )    (   0.00 ,   -0.00 )    (  -0.00 ,    0.02 )
         6      8    (   0.00 ,    0.00 )    (   0.00 ,  -52.58 )    (  -0.00 ,   -0.00 )
         6      9    (   0.00 ,    0.00 )    (   0.00 ,   -0.02 )    (  -0.00 ,    0.00 )
         6     10    (   0.00 ,    0.00 )    (   0.00 ,    0.00 )    (  -0.00 ,    0.00 )
         7      0    (   0.00 ,    0.00 )    (   0.00 ,   -0.00 )    (  -0.00 ,   -0.00 )
         7      1    (   0.00 ,   -0.02 )    (   0.00 ,    0.00 )    (  -0.00 ,   -9.31 )
         7      2    (   0.00 ,    9.31 )    (   0.00 ,    0.00 )    (  -0.00 ,   -0.02 )
         7      3    (   0.00 ,   -0.00 )    (   0.00 ,    0.00 )    (  -0.00 ,   -0.00 )
         7      4    (   0.00 ,    0.24 )    (   0.00 ,   -0.00 )    (  -0.00 ,   98.31 )
         7      5    (   0.00 ,  -98.31 )    (   0.00 ,   -0.00 )    (  -0.00 ,    0.24 )
         7      6    (   0.00 ,   -0.01 )    (   0.00 ,    0.00 )    (  -0.00 ,   -4.01 )
         7      7    (   0.00 ,   -4.01 )    (   0.00 ,   -0.00 )    (  -0.00 ,    0.01 )
         7      8    (   0.00 ,    0.00 )    (   0.00 ,  -51.60 )    (  -0.00 ,   -0.00 )
         7      9    (   0.00 ,    0.00 )    (   0.00 ,   -0.03 )    (  -0.00 ,   -0.00 )
         7     10    (   0.00 ,    0.00 )    (   0.00 ,    0.00 )    (  -0.00 ,   -0.00 )
         8      0    (   0.00 ,   -0.00 )    (   0.00 ,   -0.00 )    (  -0.00 ,    0.00 )
         8      1    (   0.00 ,   -0.06 )    (   0.00 ,   -0.00 )    (  -0.00 ,   24.49 )
         8      2    (   0.00 ,   24.49 )    (   0.00 ,    0.00 )    (  -0.00 ,    0.06 )
         8      3    (   0.00 ,    0.00 )    (   0.00 ,   -0.00 )    (  -0.00 ,   -0.00 )
         8      4    (   0.00 ,    0.07 )    (   0.00 ,    0.00 )    (  -0.00 ,  -29.62 )
         8      5    (   0.00 ,  -29.63 )    (   0.00 ,   -0.00 )    (  -0.00 ,   -0.07 )
         8      6    (   0.00 ,   -0.04 )    (   0.00 ,   -0.00 )    (  -0.00 ,   15.57 )
         8      7    (   0.00 ,  -15.57 )    (   0.00 ,    0.00 )    (  -0.00 ,   -0.04 )
         8      8    (   0.00 ,    0.00 )    (   0.00 ,   -0.07 )    (  -0.00 ,   -0.00 )
         8      9    (   0.00 ,   -0.00 )    (   0.00 ,  178.38 )    (  -0.00 ,    0.00 )
         8     10    (   0.00 ,    0.00 )    (   0.00 ,    0.00 )    (  -0.00 ,   -0.00 )
         9      0    (   0.00 ,   -0.00 )    (   0.00 ,   -0.01 )    (  -0.00 ,   -0.00 )
         9      1    (   0.00 ,  -24.50 )    (   0.00 ,   -0.00 )    (  -0.00 ,   -0.06 )
         9      2    (   0.00 ,   -0.06 )    (   0.00 ,   -0.00 )    (  -0.00 ,   24.50 )
         9      3    (   0.00 ,    0.00 )    (   0.00 ,   -0.00 )    (  -0.00 ,    0.00 )
         9      4    (   0.00 ,   29.63 )    (   0.00 ,    0.00 )    (  -0.00 ,    0.07 )
         9      5    (   0.00 ,    0.07 )    (   0.00 ,    0.00 )    (  -0.00 ,  -29.63 )
         9      6    (   0.00 ,  -15.57 )    (   0.00 ,    0.00 )    (  -0.00 ,   -0.04 )
         9      7    (   0.00 ,    0.04 )    (   0.00 ,    0.00 )    (  -0.00 ,  -15.57 )
         9      8    (   0.00 ,    0.00 )    (   0.00 ,    0.00 )    (  -0.00 ,    0.00 )
         9      9    (   0.00 ,    0.00 )    (   0.00 ,   -0.00 )    (  -0.00 ,    0.00 )
         9     10    (   0.00 ,   -0.00 )    (   0.00 ,  178.39 )    (  -0.00 ,    0.00 )
        10      0    (   0.00 ,  -48.85 )    (   0.00 ,   -0.00 )    (  -0.00 ,    0.12 )
        10      1    (   0.00 ,    0.00 )    (   0.00 ,    1.53 )    (  -0.00 ,    0.00 )
        10      2    (   0.00 ,   -0.00 )    (   0.00 ,    0.00 )    (  -0.00 ,   -0.00 )
        10      3    (   0.00 ,    5.46 )    (   0.00 ,    0.00 )    (  -0.00 ,   -0.01 )
        10      4    (   0.00 ,   -0.00 )    (   0.00 ,    1.68 )    (  -0.00 ,    0.00 )
        10      5    (   0.00 ,    0.00 )    (   0.00 ,    0.00 )    (  -0.00 ,    0.00 )
        10      6    (   0.00 ,   -0.00 )    (   0.00 ,  126.92 )    (  -0.00 ,    0.00 )
        10      7    (   0.00 ,    0.00 )    (   0.00 ,   -0.00 )    (  -0.00 ,    0.00 )
        10      8    (   0.00 ,    0.03 )    (   0.00 ,   -0.00 )    (  -0.00 ,   12.77 )
        10      9    (   0.00 ,   -0.05 )    (   0.00 ,   -0.00 )    (  -0.00 ,   22.01 )
        10     10    (   0.00 ,  -22.00 )    (   0.00 ,   -0.00 )    (  -0.00 ,   -0.05 )

SOC stabilization of the ground state:  -0.2701 cm-1
Eigenvalues of the SOC matrix:

   State:        cm-1         eV
     0:          0.00         0.0000
     1:      78252.25         9.7020
     2:      78252.25         9.7020
     3:      78375.96         9.7174
     4:      78376.60         9.7175
     5:      78506.26         9.7335
     6:      78506.81         9.7336
     7:      83774.38        10.3867
     8:      83775.02        10.3868
     9:     103192.09        12.7942
    10:     103192.21        12.7942
    11:     103192.21        12.7942
    12:     119473.63        14.8128
    13:     149981.06        18.5953
    14:     149981.06        18.5953
    15:     150104.10        18.6105
    16:     150104.74        18.6106
    17:     150234.45        18.6267
    18:     150235.73        18.6269
    19:     154895.41        19.2046
    20:     154896.03        19.2047
    21:     170129.21        21.0933
    22:     170129.23        21.0933
    23:     170129.28        21.0933
    24:     174648.53        21.6537
    25:     174649.12        21.6537
    26:     174649.20        21.6537
    27:     178139.82        22.0865
    28:     178139.82        22.0865
    29:     178206.02        22.0947
    30:     178213.83        22.0957
    31:     178287.45        22.1048
    32:     178287.88        22.1049
    33:     179076.27        22.2026
    34:     179080.04        22.2031
    35:     179080.10        22.2031
    36:     182988.01        22.6876
    37:     182991.50        22.6881
    38:     185553.52        23.0057
    39:     186665.11        23.1435
    40:     186747.58        23.1537

The threshold for printing is 0.0100
Eigenvectors of the SOC matrix:

             E(cm-1)  Weight      Real         Imag     : Root  Spin  Ms
 STATE  0:      0.00
                      1.00000     -1.00000      0.00001 : 0     0     0
 STATE  1:  78252.25
                      0.50126      0.00000     -0.70799 : 1     1     0
                      0.24937      0.49937      0.00000 : 2     1    -1
                      0.24937      0.49937      0.00000 : 2     1     1
 STATE  2:  78252.25
                      0.49874      0.00057      0.70622 : 2     1     0
                      0.25063      0.50063     -0.00041 : 1     1    -1
                      0.25063      0.50063     -0.00041 : 1     1     1
 STATE  3:  78375.96
                      0.49971     -0.68215      0.18543 : 1     1    -1
                      0.49971      0.68215     -0.18543 : 1     1     1
 STATE  4:  78376.60
                      0.49971     -0.70690      0.00000 : 2     1    -1
                      0.49971      0.70690     -0.00000 : 2     1     1
 STATE  5:  78506.26
                      0.49872     -0.00000     -0.70620 : 1     1     0
                      0.25062     -0.50062      0.00000 : 2     1    -1
                      0.25062     -0.50062      0.00000 : 2     1     1
 STATE  6:  78506.81
                      0.50125     -0.00037      0.70799 : 2     1     0
                      0.24937     -0.49937     -0.00026 : 1     1    -1
                      0.24937     -0.49937     -0.00026 : 1     1     1
 STATE  7:  83774.38
                      0.99942     -0.00000     -0.99971 : 1     0     0
 STATE  8:  83775.02
                      0.99942     -0.00516      0.99969 : 2     0     0
 STATE  9: 103192.09
                      0.49998     -0.00000     -0.70709 : 3     1    -1
                      0.49998     -0.00000      0.70709 : 3     1     1
 STATE 10: 103192.21
                      0.49997     -0.00000     -0.70709 : 3     1    -1
                      0.49997     -0.00000     -0.70709 : 3     1     1
 STATE 11: 103192.21
                      0.99994      0.99997     -0.00219 : 3     1     0
 STATE 12: 119473.63
                      0.99999      0.99999     -0.00001 : 3     0     0
 STATE 13: 149981.06
                      0.50126      0.00000     -0.70800 : 4     1     0
                      0.24937      0.49937      0.00000 : 5     1    -1
                      0.24937      0.49937      0.00000 : 5     1     1
 STATE 14: 149981.06
                      0.49874      0.00006      0.70622 : 5     1     0
                      0.25063      0.50063     -0.00005 : 4     1    -1
                      0.25063      0.50063     -0.00005 : 4     1     1
 STATE 15: 150104.10
                      0.49964      0.00787      0.70681 : 4     1    -1
                      0.49964     -0.00787     -0.70681 : 4     1     1
 STATE 16: 150104.74
                      0.49964     -0.70685     -0.00006 : 5     1    -1
                      0.49964      0.70685      0.00006 : 5     1     1
 STATE 17: 150234.45
                      0.49871      0.00000      0.70619 : 4     1     0
                      0.25062      0.50062     -0.00000 : 5     1    -1
                      0.25062      0.50062     -0.00000 : 5     1     1
 STATE 18: 150235.73
                      0.50125      0.00000     -0.70799 : 5     1     0
                      0.24937      0.49937      0.00000 : 4     1    -1
                      0.24937      0.49937      0.00000 : 4     1     1
 STATE 19: 154895.41
                      0.99926      0.00000      0.99963 : 4     0     0
 STATE 20: 154896.03
                      0.99926      0.00521      0.99962 : 5     0     0
 STATE 21: 170129.21
                      0.49998      0.00000      0.70709 : 6     1    -1
                      0.49998      0.00000      0.70709 : 6     1     1
 STATE 22: 170129.23
                      0.99996      0.90654     -0.42208 : 6     1     0
 STATE 23: 170129.28
                      0.49997      0.00000      0.70709 : 6     1    -1
                      0.49997      0.00000     -0.70709 : 6     1     1
 STATE 24: 174648.53
                      0.49997      0.00000      0.70709 : 7     1    -1
                      0.49997      0.00000     -0.70709 : 7     1     1
 STATE 25: 174649.12
                      0.49997      0.00000      0.70709 : 7     1    -1
                      0.49997      0.00000      0.70709 : 7     1     1
 STATE 26: 174649.20
                      0.99996     -0.83140     -0.55564 : 7     1     0
 STATE 27: 178139.82
                      0.47366      0.68823      0.00000 : 9     1     0
                      0.26317      0.00000     -0.51300 : 8     1    -1
                      0.26317      0.00000     -0.51300 : 8     1     1
 STATE 28: 178139.82
                      0.52627     -0.72507     -0.02332 : 8     1     0
                      0.23686      0.01564     -0.48643 : 9     1    -1
                      0.23686      0.01564     -0.48643 : 9     1     1
 STATE 29: 178206.02
                      0.49965      0.00000      0.70686 : 8     1    -1
                      0.49965     -0.00000     -0.70686 : 8     1     1
 STATE 30: 178213.83
                      0.49965      0.00000     -0.70686 : 9     1    -1
                      0.49965     -0.00000      0.70686 : 9     1     1
 STATE 31: 178287.45
                      0.52605      0.72529     -0.00000 : 9     1     0
                      0.23669      0.00000      0.48651 : 8     1    -1
                      0.23669      0.00000      0.48651 : 8     1     1
 STATE 32: 178287.88
                      0.47371     -0.45520      0.51624 : 8     1     0
                      0.26313      0.38475      0.33926 : 9     1    -1
                      0.26313      0.38475      0.33926 : 9     1     1
 STATE 33: 179076.27
                      0.49919     -0.70654      0.00000 : 10     1    -1
                      0.49919      0.70654      0.00000 : 10     1     1
 STATE 34: 179080.04
                      0.99973      0.00000      0.99987 : 10     1     0
 STATE 35: 179080.10
                      0.49986     -0.70700      0.00000 : 10     1    -1
                      0.49986     -0.70700      0.00000 : 10     1     1
 STATE 36: 182988.01
                      0.99998     -0.00029     -0.99999 : 7     0     0
 STATE 37: 182991.50
                      0.99892      0.00000      0.99946 : 6     0     0
 STATE 38: 185553.52
                      0.99996     -0.99998      0.00000 : 8     0     0
 STATE 39: 186665.11
                      0.99955      0.99977     -0.00000 : 9     0     0
 STATE 40: 186747.58
                      0.99955      0.99978      0.00001 : 10     0     0

-----------------------------
TD-DFT/TDA-EXCITATION SPECTRA
-----------------------------

Center of mass = (  6.7667,  7.5589,  7.5589)
Calculating the Dipole integrals                  ... done
Transforming integrals                            ... done
Calculating the Linear Momentum integrals         ... done
Transforming integrals                            ... done
Calculating angular momentum integrals            ... done
Transforming integrals                            ... done

-----------------------------------------------------------------------------
         ABSORPTION SPECTRUM VIA TRANSITION ELECTRIC DIPOLE MOMENTS
-----------------------------------------------------------------------------
State   Energy    Wavelength  fosc         T2        TX        TY        TZ  
        (cm-1)      (nm)                 (au**2)    (au)      (au)      (au) 
-----------------------------------------------------------------------------
   1   83771.7    119.4   0.031300611   0.12301   0.00000   0.00085   0.35072
   2   83772.4    119.4   0.031299107   0.12300  -0.00000  -0.35071   0.00085
   3  119472.8     83.7   0.235464975   0.64883  -0.80550   0.00000   0.00000
   4  154892.5     64.6   0.065816984   0.13989   0.00000   0.00091   0.37402
   5  154893.2     64.6   0.065818193   0.13989  -0.00000  -0.37402   0.00091
   6  182987.0     54.6   0.001099498   0.00198  -0.00000  -0.00011  -0.04448
   7  182987.6     54.6   0.001098603   0.00198  -0.00000  -0.04446   0.00011
   8  185552.8     53.9   0.000000000   0.00000   0.00000   0.00000   0.00000
   9  186661.0     53.6   0.000000000   0.00000  -0.00000   0.00000  -0.00000
  10  186743.5     53.5   0.000000000   0.00000  -0.00001  -0.00000   0.00000
  11   78379.2    127.6   spin forbidden (mult=3)
  12   78379.8    127.6   spin forbidden (mult=3)
  13  103190.9     96.9   spin forbidden (mult=3)
  14  150107.8     66.6   spin forbidden (mult=3)
  15  150108.4     66.6   spin forbidden (mult=3)
  16  170128.3     58.8   spin forbidden (mult=3)
  17  174648.3     57.3   spin forbidden (mult=3)
  18  178209.7     56.1   spin forbidden (mult=3)
  19  178217.4     56.1   spin forbidden (mult=3)
  20  179079.6     55.8   spin forbidden (mult=3)

-----------------------------------------------------------------------------
         ABSORPTION SPECTRUM VIA TRANSITION VELOCITY DIPOLE MOMENTS
-----------------------------------------------------------------------------
State   Energy    Wavelength   fosc        P2         PX        PY        PZ  
        (cm-1)      (nm)                 (au**2)     (au)      (au)      (au) 
-----------------------------------------------------------------------------
   1   83771.7    119.4   0.061688535   0.03532  -0.00000  -0.00046  -0.18793
   2   83772.4    119.4   0.061684820   0.03532   0.00000   0.18793  -0.00046
   3  119472.8     83.7   0.169559434   0.13845   0.37209  -0.00000  -0.00000
   4  154892.5     64.6   0.050364564   0.05332  -0.00000  -0.00056  -0.23090
   5  154893.2     64.6   0.050367788   0.05332   0.00000   0.23091  -0.00056
   6  182987.0     54.6   0.000072057   0.00009   0.00000   0.00002   0.00949
   7  182987.6     54.6   0.000071673   0.00009   0.00000   0.00947  -0.00002
   8  185552.8     53.9   0.000000000   0.00000   0.00000  -0.00000  -0.00000
   9  186661.0     53.6   0.000000000   0.00000   0.00000   0.00000   0.00000
  10  186743.5     53.5   0.000000000   0.00000   0.00000  -0.00000  -0.00000
  11   78379.2    127.6   spin forbidden (mult=3)
  12   78379.8    127.6   spin forbidden (mult=3)
  13  103190.9     96.9   spin forbidden (mult=3)
  14  150107.8     66.6   spin forbidden (mult=3)
  15  150108.4     66.6   spin forbidden (mult=3)
  16  170128.3     58.8   spin forbidden (mult=3)
  17  174648.3     57.3   spin forbidden (mult=3)
  18  178209.7     56.1   spin forbidden (mult=3)
  19  178217.4     56.1   spin forbidden (mult=3)
  20  179079.6     55.8   spin forbidden (mult=3)

-------------------------------------------------------------------
                             CD SPECTRUM
-------------------------------------------------------------------
State  Energy     Wavelength     R         MX        MY        MZ   
       (cm-1)       (nm)     (1e40*cgs)   (au)      (au)      (au)  
-------------------------------------------------------------------
   1   83771.7    119.4      0.00000  -0.00000  -0.09111   0.00022
   2   83772.4    119.4     -0.00000  -0.00000  -0.00022  -0.09111
   3  119472.8     83.7     -0.00000   0.00000   0.00000  -0.00000
   4  154892.5     64.6      0.00000   0.00000   0.09082  -0.00022
   5  154893.2     64.6     -0.00000   0.00000   0.00022   0.09083
   6  182987.0     54.6      0.00000   0.00000   0.04380  -0.00011
   7  182987.6     54.6     -0.00000  -0.00000  -0.00011  -0.04380
   8  185552.8     53.9      0.00000   0.00000  -0.00000   0.00000
   9  186661.0     53.6      0.00000  -0.00000  -0.00000   0.00000
  10  186743.5     53.5     -0.00000   0.00000  -0.00000  -0.00000
  11   78379.2    127.6 spin forbidden
  12   78379.8    127.6 spin forbidden
  13  103190.9     96.9 spin forbidden
  14  150107.8     66.6 spin forbidden
  15  150108.4     66.6 spin forbidden
  16  170128.3     58.8 spin forbidden
  17  174648.3     57.3 spin forbidden
  18  178209.7     56.1 spin forbidden
  19  178217.4     56.1 spin forbidden
  20  179079.6     55.8 spin forbidden

-------------------------------------------------------------------
         CD SPECTRUM VIA TRANSITION VELOCITY DIPOLE MOMENTS        
-------------------------------------------------------------------
State  Energy     Wavelength     R         MX        MY        MZ   
       (cm-1)       (nm)     (1e40*cgs)   (au)      (au)      (au)  
-------------------------------------------------------------------
   1   83771.7    119.4      0.00000  -0.00000  -0.09111   0.00022
   2   83772.4    119.4     -0.00000  -0.00000  -0.00022  -0.09111
   3  119472.8     83.7     -0.00000   0.00000   0.00000  -0.00000
   4  154892.5     64.6      0.00000   0.00000   0.09082  -0.00022
   5  154893.2     64.6     -0.00000   0.00000   0.00022   0.09083
   6  182987.0     54.6      0.00000   0.00000   0.04380  -0.00011
   7  182987.6     54.6     -0.00000  -0.00000  -0.00011  -0.04380
   8  185552.8     53.9      0.00000   0.00000  -0.00000   0.00000
   9  186661.0     53.6      0.00000  -0.00000  -0.00000   0.00000
  10  186743.5     53.5     -0.00000   0.00000  -0.00000  -0.00000
  11   78379.2    127.6 spin forbidden
  12   78379.8    127.6 spin forbidden
  13  103190.9     96.9 spin forbidden
  14  150107.8     66.6 spin forbidden
  15  150108.4     66.6 spin forbidden
  16  170128.3     58.8 spin forbidden
  17  174648.3     57.3 spin forbidden
  18  178209.7     56.1 spin forbidden
  19  178217.4     56.1 spin forbidden
  20  179079.6     55.8 spin forbidden

-------------------------------------------
SOC CORRECTED TD-DFT/TDA-EXCITATION SPECTRA
--------------------------------------------

---------------------------------------------------------------------------------
SPIN ORBIT CORRECTED ABSORPTION SPECTRUM VIA TRANSITION ELECTRIC DIPOLE MOMENTS
---------------------------------------------------------------------------------
  States    Energy  Wavelength   fosc         T2         TX        TY        TZ  
            (cm-1)    (nm)                  (au**2)     (au)      (au)      (au) 
---------------------------------------------------------------------------------
   0   1   78252.3    127.8   0.000000000   0.00000   0.00000   0.00000   0.00000
   0   2   78252.3    127.8   0.000000006   0.00000   0.00016   0.00000   0.00000
   0   3   78376.0    127.6   0.000016101   0.00007   0.00000   0.00822   0.00002
   0   4   78376.6    127.6   0.000016109   0.00007   0.00000   0.00002   0.00823
   0   5   78506.3    127.4   0.000000000   0.00000   0.00000   0.00000   0.00000
   0   6   78506.8    127.4   0.000008393   0.00004   0.00593   0.00000   0.00000
   0   7   83774.4    119.4   0.031283201   0.12294   0.00000   0.00085   0.35062
   0   8   83775.0    119.4   0.031281689   0.12293   0.00000   0.35061   0.00085
   0   9  103192.1     96.9   0.000000000   0.00000   0.00000   0.00000   0.00000
   0  10  103192.2     96.9   0.000001456   0.00000   0.00000   0.00001   0.00216
   0  11  103192.2     96.9   0.000001477   0.00000   0.00000   0.00217   0.00001
   0  12  119473.6     83.7   0.235455702   0.64880   0.80548   0.00000   0.00000
   0  13  149981.1     66.7   0.000000000   0.00000   0.00000   0.00000   0.00000
   0  14  149981.1     66.7   0.000000009   0.00000   0.00014   0.00000   0.00000
   0  15  150104.1     66.6   0.000044446   0.00010   0.00000   0.00987   0.00002
   0  16  150104.7     66.6   0.000044469   0.00010   0.00000   0.00002   0.00988
   0  17  150234.5     66.6   0.000000000   0.00000   0.00000   0.00000   0.00000
   0  18  150235.7     66.6   0.000001081   0.00000   0.00154   0.00000   0.00000
   0  19  154895.4     64.6   0.065768950   0.13978   0.00000   0.00091   0.37388
   0  20  154896.0     64.6   0.065770156   0.13979   0.00000   0.37388   0.00091
   0  21  170129.2     58.8   0.000000711   0.00000   0.00000   0.00000   0.00117
   0  22  170129.2     58.8   0.000000728   0.00000   0.00000   0.00119   0.00000
   0  23  170129.3     58.8   0.000000000   0.00000   0.00000   0.00000   0.00000
   0  24  174648.5     57.3   0.000000000   0.00000   0.00000   0.00000   0.00000
   0  25  174649.1     57.3   0.000002248   0.00000   0.00000   0.00000   0.00206
   0  26  174649.2     57.3   0.000002270   0.00000   0.00000   0.00207   0.00001
   0  27  178139.8     56.1   0.000000000   0.00000   0.00000   0.00000   0.00003
   0  28  178139.8     56.1   0.000000000   0.00000   0.00000   0.00002   0.00000
   0  29  178206.0     56.1   0.000000000   0.00000   0.00000   0.00000   0.00000
   0  30  178213.8     56.1   0.000000000   0.00000   0.00000   0.00000   0.00000
   0  31  178287.5     56.1   0.000000479   0.00000   0.00000   0.00000   0.00094
   0  32  178287.9     56.1   0.000000451   0.00000   0.00000   0.00091   0.00000
   0  33  179076.3     55.8   0.000001160   0.00000   0.00000   0.00000   0.00146
   0  34  179080.0     55.8   0.000000000   0.00000   0.00001   0.00000   0.00000
   0  35  179080.1     55.8   0.000000000   0.00000   0.00000   0.00000   0.00000
   0  36  182988.0     54.6   0.001098839   0.00198   0.00000   0.04446   0.00011
   0  37  182991.5     54.6   0.001098558   0.00198   0.00000   0.00011   0.04446
   0  38  185553.5     53.9   0.000000000   0.00000   0.00000   0.00000   0.00000
   0  39  186665.1     53.6   0.000000000   0.00000   0.00000   0.00000   0.00000
   0  40  186747.6     53.5   0.000000000   0.00000   0.00001   0.00000   0.00000

---------------------------------------------------------------------------------
SPIN ORBIT CORRECTED ABSORPTION SPECTRUM VIA TRANSITION VELOCITY DIPOLE MOMENTS
---------------------------------------------------------------------------------
  States    Energy  Wavelength   fosc         P2         PX        PY        PZ  
            (cm-1)    (nm)                  (au**2)     (au)      (au)      (au) 
---------------------------------------------------------------------------------
   0   1   78252.3    127.8   0.000000000   0.00000   0.00000   0.00000   0.00000
   0   2   78252.3    127.8   0.000000005   0.00000   0.00005   0.00000   0.00000
   0   3   78376.0    127.6   0.000036212   0.00002   0.00000   0.00440   0.00001
   0   4   78376.6    127.6   0.000036231   0.00002   0.00000   0.00001   0.00441
   0   5   78506.3    127.4   0.000000000   0.00000   0.00000   0.00000   0.00000
   0   6   78506.8    127.4   0.000003747   0.00000   0.00142   0.00000   0.00000
   0   7   83774.4    119.4   0.061650586   0.03530   0.00000   0.00046   0.18788
   0   8   83775.0    119.4   0.061646895   0.03530   0.00000   0.18787   0.00046
   0   9  103192.1     96.9   0.000000000   0.00000   0.00000   0.00000   0.00000
   0  10  103192.2     96.9   0.000001686   0.00000   0.00000   0.00000   0.00109
   0  11  103192.2     96.9   0.000001677   0.00000   0.00000   0.00109   0.00000
   0  12  119473.6     83.7   0.169555371   0.13845   0.37209   0.00000   0.00000
   0  13  149981.1     66.7   0.000000000   0.00000   0.00000   0.00000   0.00000
   0  14  149981.1     66.7   0.000000002   0.00000   0.00004   0.00000   0.00000
   0  15  150104.1     66.6   0.000036234   0.00004   0.00000   0.00610   0.00001
   0  16  150104.7     66.6   0.000036250   0.00004   0.00000   0.00001   0.00610
   0  17  150234.5     66.6   0.000000000   0.00000   0.00000   0.00000   0.00000
   0  18  150235.7     66.6   0.000000002   0.00000   0.00005   0.00000   0.00000
   0  19  154895.4     64.6   0.050325991   0.05328   0.00000   0.00056   0.23082
   0  20  154896.0     64.6   0.050329248   0.05328   0.00000   0.23082   0.00056
   0  21  170129.2     58.8   0.000000533   0.00000   0.00000   0.00000   0.00079
   0  22  170129.2     58.8   0.000000562   0.00000   0.00000   0.00081   0.00000
   0  23  170129.3     58.8   0.000000000   0.00000   0.00000   0.00000   0.00000
   0  24  174648.5     57.3   0.000000000   0.00000   0.00000   0.00000   0.00000
   0  25  174649.1     57.3   0.000001300   0.00000   0.00000   0.00000   0.00125
   0  26  174649.2     57.3   0.000001256   0.00000   0.00000   0.00122   0.00000
   0  27  178139.8     56.1   0.000000001   0.00000   0.00000   0.00000   0.00004
   0  28  178139.8     56.1   0.000000000   0.00000   0.00000   0.00001   0.00000
   0  29  178206.0     56.1   0.000000000   0.00000   0.00000   0.00000   0.00000
   0  30  178213.8     56.1   0.000000000   0.00000   0.00001   0.00000   0.00000
   0  31  178287.5     56.1   0.000000232   0.00000   0.00000   0.00000   0.00053
   0  32  178287.9     56.1   0.000000228   0.00000   0.00000   0.00053   0.00000
   0  33  179076.3     55.8   0.000000083   0.00000   0.00000   0.00000   0.00032
   0  34  179080.0     55.8   0.000000099   0.00000   0.00035   0.00000   0.00000
   0  35  179080.1     55.8   0.000000000   0.00000   0.00000   0.00000   0.00000
   0  36  182988.0     54.6   0.000071710   0.00009   0.00000   0.00947   0.00002
   0  37  182991.5     54.6   0.000072010   0.00009   0.00000   0.00002   0.00949
   0  38  185553.5     53.9   0.000000000   0.00000   0.00000   0.00000   0.00000
   0  39  186665.1     53.6   0.000000000   0.00000   0.00000   0.00000   0.00000
   0  40  186747.6     53.5   0.000000000   0.00000   0.00000   0.00000   0.00000

----------------------------------------------------------------------
                    SPIN ORBIT CORRECTED CD SPECTRUM
----------------------------------------------------------------------
  States  Energy   Wavelength    R         MX        MY        MZ   
          (cm-1)      (nm)    (1e40*sgs)  (au)      (au)      (au)  
----------------------------------------------------------------------
   0   1   78252.3    127.8     -0.00000   0.00000   0.00000   0.00000
   0   2   78252.3    127.8      0.00000   0.00000   0.00000   0.00000
   0   3   78376.0    127.6      0.00000   0.00000   0.00001   0.00215
   0   4   78376.6    127.6     -0.00000   0.00000   0.00215   0.00001
   0   5   78506.3    127.4     -0.00000   0.00071   0.00000   0.00000
   0   6   78506.8    127.4     -0.00000   0.00000   0.00000   0.00000
   0   7   83774.4    119.4      0.00000   0.00000   0.09109   0.00022
   0   8   83775.0    119.4     -0.00000   0.00000   0.00022   0.09109
   0   9  103192.1     96.9     -0.00000   0.00000   0.00000   0.00000
   0  10  103192.2     96.9      0.00000   0.00000   0.00003   0.00000
   0  11  103192.2     96.9     -0.00000   0.00000   0.00000   0.00003
   0  12  119473.6     83.7     -0.00000   0.00000   0.00000   0.00000
   0  13  149981.1     66.7      0.00000   0.00000   0.00000   0.00000
   0  14  149981.1     66.7     -0.00000   0.00000   0.00000   0.00000
   0  15  150104.1     66.6     -0.00000   0.00000   0.00001   0.00241
   0  16  150104.7     66.6      0.00000   0.00000   0.00241   0.00001
   0  17  150234.5     66.6      0.00000   0.00040   0.00000   0.00000
   0  18  150235.7     66.6     -0.00000   0.00000   0.00000   0.00000
   0  19  154895.4     64.6      0.00000   0.00000   0.09079   0.00022
   0  20  154896.0     64.6     -0.00000   0.00000   0.00022   0.09080
   0  21  170129.2     58.8     -0.00000   0.00000   0.00035   0.00000
   0  22  170129.2     58.8      0.00000   0.00000   0.00000   0.00038
   0  23  170129.3     58.8     -0.00000   0.00000   0.00000   0.00000
   0  24  174648.5     57.3      0.00000   0.00000   0.00000   0.00000
   0  25  174649.1     57.3      0.00000   0.00000   0.00004   0.00000
   0  26  174649.2     57.3     -0.00000   0.00000   0.00000   0.00001
   0  27  178139.8     56.1      0.00000   0.00000   0.00003   0.00000
   0  28  178139.8     56.1     -0.00000   0.00000   0.00000   0.00004
   0  29  178206.0     56.1      0.00000   0.00000   0.00000   0.00000
   0  30  178213.8     56.1     -0.00000   0.00000   0.00000   0.00000
   0  31  178287.5     56.1     -0.00000   0.00000   0.00020   0.00000
   0  32  178287.9     56.1      0.00000   0.00000   0.00000   0.00018
   0  33  179076.3     55.8      0.00000   0.00000   0.00141   0.00000
   0  34  179080.0     55.8      0.00000   0.00000   0.00000   0.00000
   0  35  179080.1     55.8     -0.00000   0.00000   0.00000   0.00000
   0  36  182988.0     54.6      0.00000   0.00000   0.00011   0.04380
   0  37  182991.5     54.6     -0.00000   0.00000   0.04378   0.00011
   0  38  185553.5     53.9     -0.00000   0.00000   0.00000   0.00000
[...]
   0  27  178139.8     56.1   0.000000000   0.00000 ( -0.00000, -0.00000) (  0.00000, -0.00000) (  0.00000, -0.00003)
   0  28  178139.8     56.1   0.000000000   0.00000 (  0.00000, -0.00000) (  0.00000, -0.00002) ( -0.00000,  0.00000)
   0  29  178206.0     56.1   0.000000000   0.00000 ( -0.00000, -0.00000) ( -0.00000,  0.00000) ( -0.00000,  0.00000)
   0  30  178213.8     56.1   0.000000000   0.00000 (  0.00000,  0.00000) (  0.00000,  0.00000) (  0.00000,  0.00000)
   0  31  178287.5     56.1   0.000000479   0.00000 ( -0.00000,  0.00000) ( -0.00000,  0.00000) ( -0.00000,  0.00094)
   0  32  178287.9     56.1   0.000000451   0.00000 ( -0.00000, -0.00000) ( -0.00068, -0.00060) (  0.00000,  0.00000)
   0  33  179076.3     55.8   0.000001160   0.00000 ( -0.00000, -0.00000) (  0.00000, -0.00000) (  0.00000, -0.00146)
   0  34  179080.0     55.8   0.000000000   0.00000 (  0.00001,  0.00000) (  0.00000, -0.00000) (  0.00000, -0.00000)
   0  35  179080.1     55.8   0.000000000   0.00000 ( -0.00000, -0.00000) ( -0.00000, -0.00000) (  0.00000, -0.00000)
   0  36  182988.0     54.6   0.001098839   0.00198 ( -0.00000, -0.00000) ( -0.00001, -0.04446) (  0.00000,  0.00011)
   0  37  182991.5     54.6   0.001098558   0.00198 ( -0.00000,  0.00000) ( -0.00000,  0.00011) ( -0.00000,  0.04446)
   0  38  185553.5     53.9   0.000000000   0.00000 (  0.00000, -0.00000) (  0.00000,  0.00000) (  0.00000,  0.00000)
   0  39  186665.1     53.6   0.000000000   0.00000 (  0.00000,  0.00000) ( -0.00000, -0.00000) (  0.00000, -0.00000)
   0  40  186747.6     53.5   0.000000000   0.00000 (  0.00001,  0.00000) (  0.00000,  0.00000) ( -0.00000, -0.00000)

---------------------------------------------------------------------------------------------------------------------
                    SOC CORRECTED ABSORPTION SPECTRUM VIA TRANSITION VELOCITY DIPOLE MOMENTS*  
---------------------------------------------------------------------------------------------------------------------
   State    Energy  Wavelength   fosc         P2              PX                    PY                    PZ  
            (cm-1)    (nm)                  (au**2)          (au)                  (au)                  (au) 
---------------------------------------------------------------------------------------------------------------------
   0   1   78252.3    127.8   0.000000000   0.00000 (  0.00000, -0.00000) (  0.00000, -0.00000) (  0.00000, -0.00000)
   0   2   78252.3    127.8   0.000000005   0.00000 (  0.00000,  0.00005) ( -0.00000, -0.00000) ( -0.00000, -0.00000)
   0   3   78376.0    127.6   0.000036212   0.00002 ( -0.00000,  0.00000) ( -0.00425,  0.00116) (  0.00001, -0.00000)
   0   4   78376.6    127.6   0.000036231   0.00002 ( -0.00000, -0.00000) ( -0.00001, -0.00000) ( -0.00441, -0.00000)
   0   5   78506.3    127.4   0.000000000   0.00000 (  0.00000, -0.00000) ( -0.00000,  0.00000) ( -0.00000, -0.00000)
   0   6   78506.8    127.4   0.000003747   0.00000 (  0.00000, -0.00142) ( -0.00000,  0.00000) ( -0.00000,  0.00000)
   0   7   83774.4    119.4   0.061650586   0.03530 (  0.00000,  0.00000) (  0.00046,  0.00000) (  0.18788,  0.00000)
   0   8   83775.0    119.4   0.061646895   0.03530 (  0.00000,  0.00000) (  0.18787,  0.00097) ( -0.00046, -0.00000)
   0   9  103192.1     96.9   0.000000000   0.00000 (  0.00000, -0.00000) (  0.00000,  0.00000) ( -0.00000, -0.00000)
   0  10  103192.2     96.9   0.000001686   0.00000 (  0.00000,  0.00000) (  0.00000,  0.00000) (  0.00109,  0.00000)
   0  11  103192.2     96.9   0.000001677   0.00000 (  0.00000, -0.00000) (  0.00109, -0.00000) ( -0.00000,  0.00000)
   0  12  119473.6     83.7   0.169555371   0.13845 ( -0.00000, -0.37209) (  0.00000,  0.00000) (  0.00000,  0.00000)
   0  13  149981.1     66.7   0.000000000   0.00000 ( -0.00000,  0.00000) ( -0.00000,  0.00000) (  0.00000,  0.00000)
   0  14  149981.1     66.7   0.000000002   0.00000 ( -0.00000, -0.00004) (  0.00000,  0.00000) ( -0.00000,  0.00000)
   0  15  150104.1     66.6   0.000036234   0.00004 (  0.00000,  0.00000) (  0.00007,  0.00610) ( -0.00000, -0.00001)
   0  16  150104.7     66.6   0.000036250   0.00004 ( -0.00000, -0.00000) ( -0.00001, -0.00000) ( -0.00610, -0.00000)
   0  17  150234.5     66.6   0.000000000   0.00000 ( -0.00000, -0.00000) (  0.00000,  0.00000) ( -0.00000,  0.00000)
   0  18  150235.7     66.6   0.000000002   0.00000 (  0.00000, -0.00005) ( -0.00000,  0.00000) ( -0.00000,  0.00000)
   0  19  154895.4     64.6   0.050325991   0.05328 ( -0.00000, -0.00000) ( -0.00056, -0.00000) ( -0.23082, -0.00000)
   0  20  154896.0     64.6   0.050329248   0.05328 (  0.00000, -0.00000) (  0.23082, -0.00120) ( -0.00056,  0.00000)
   0  21  170129.2     58.8   0.000000533   0.00000 (  0.00000,  0.00000) (  0.00000,  0.00000) (  0.00079,  0.00000)
   0  22  170129.2     58.8   0.000000562   0.00000 ( -0.00000,  0.00000) ( -0.00073,  0.00034) (  0.00000, -0.00000)
   0  23  170129.3     58.8   0.000000000   0.00000 (  0.00000, -0.00000) ( -0.00000,  0.00000) ( -0.00000,  0.00000)
   0  24  174648.5     57.3   0.000000000   0.00000 (  0.00000, -0.00000) ( -0.00000,  0.00000) ( -0.00000,  0.00000)
   0  25  174649.1     57.3   0.000001300   0.00000 ( -0.00000, -0.00000) ( -0.00000, -0.00000) ( -0.00125, -0.00000)
   0  26  174649.2     57.3   0.000001256   0.00000 ( -0.00000, -0.00000) ( -0.00102, -0.00068) (  0.00000,  0.00000)
   0  27  178139.8     56.1   0.000000001   0.00000 ( -0.00000,  0.00000) (  0.00000,  0.00000) ( -0.00004, -0.00000)
   0  28  178139.8     56.1   0.000000000   0.00000 (  0.00000,  0.00000) (  0.00001,  0.00000) (  0.00000,  0.00000)
   0  29  178206.0     56.1   0.000000000   0.00000 (  0.00000, -0.00000) (  0.00000,  0.00000) ( -0.00000,  0.00000)
   0  30  178213.8     56.1   0.000000000   0.00000 ( -0.00000,  0.00001) (  0.00000,  0.00000) (  0.00000, -0.00000)
   0  31  178287.5     56.1   0.000000232   0.00000 (  0.00000,  0.00000) (  0.00000,  0.00000) (  0.00053,  0.00000)
   0  32  178287.9     56.1   0.000000228   0.00000 ( -0.00000,  0.00000) ( -0.00035,  0.00039) (  0.00000, -0.00000)
   0  33  179076.3     55.8   0.000000083   0.00000 ( -0.00000,  0.00000) ( -0.00000, -0.00000) ( -0.00032, -0.00000)
   0  34  179080.0     55.8   0.000000099   0.00000 ( -0.00000,  0.00035) (  0.00000, -0.00000) ( -0.00000, -0.00000)
   0  35  179080.1     55.8   0.000000000   0.00000 (  0.00000, -0.00000) ( -0.00000,  0.00000) ( -0.00000, -0.00000)
   0  36  182988.0     54.6   0.000071710   0.00009 ( -0.00000,  0.00000) ( -0.00947,  0.00000) (  0.00002, -0.00000)
   0  37  182991.5     54.6   0.000072010   0.00009 (  0.00000,  0.00000) (  0.00002,  0.00000) (  0.00949,  0.00000)
   0  38  185553.5     53.9   0.000000000   0.00000 ( -0.00000, -0.00000) (  0.00000, -0.00000) (  0.00000, -0.00000)
   0  39  186665.1     53.6   0.000000000   0.00000 (  0.00000, -0.00000) (  0.00000, -0.00000) (  0.00000, -0.00000)
   0  40  186747.6     53.5   0.000000000   0.00000 (  0.00000, -0.00000) ( -0.00000,  0.00000) ( -0.00000,  0.00000)

-------------------------------------------------------------------------------------------------------
                                     SOC CORRECTED CD SPECTRUM*  
-------------------------------------------------------------------------------------------------------
   State    Energy  Wavelength      R               MX                    MY                    MZ  
            (cm-1)     (nm)      (1e40*sgs)         (au)                  (au)                  (au) 
-------------------------------------------------------------------------------------------------------
   0   1   78252.3    127.8     -0.00000 (  0.00000, -0.00000) ( -0.00000,  0.00000) (  0.00000, -0.00000)
   0   2   78252.3    127.8      0.00000 ( -0.00000, -0.00000) (  0.00000,  0.00000) (  0.00000, -0.00000)
   0   3   78376.0    127.6      0.00000 ( -0.00000,  0.00000) ( -0.00001,  0.00000) ( -0.00207,  0.00056)
   0   4   78376.6    127.6     -0.00000 (  0.00000,  0.00000) (  0.00215,  0.00000) ( -0.00001, -0.00000)
   0   5   78506.3    127.4     -0.00000 (  0.00000, -0.00071) (  0.00000,  0.00000) ( -0.00000,  0.00000)
   0   6   78506.8    127.4     -0.00000 (  0.00000,  0.00000) (  0.00000,  0.00000) (  0.00000, -0.00000)
   0   7   83774.4    119.4      0.00000 ( -0.00000, -0.00000) ( -0.09109, -0.00000) (  0.00022,  0.00000)
   0   8   83775.0    119.4     -0.00000 (  0.00000,  0.00000) (  0.00022,  0.00000) (  0.09109,  0.00047)
   0   9  103192.1     96.9     -0.00000 (  0.00000, -0.00000) ( -0.00000,  0.00000) ( -0.00000,  0.00000)
   0  10  103192.2     96.9      0.00000 (  0.00000, -0.00000) (  0.00003,  0.00000) ( -0.00000, -0.00000)
   0  11  103192.2     96.9     -0.00000 ( -0.00000,  0.00000) ( -0.00000,  0.00000) ( -0.00003,  0.00000)
   0  12  119473.6     83.7     -0.00000 ( -0.00000,  0.00000) (  0.00000,  0.00000) ( -0.00000, -0.00000)
   0  13  149981.1     66.7      0.00000 ( -0.00000,  0.00000) (  0.00000,  0.00000) (  0.00000,  0.00000)
   0  14  149981.1     66.7     -0.00000 (  0.00000,  0.00000) ( -0.00000, -0.00000) (  0.00000, -0.00000)
   0  15  150104.1     66.6     -0.00000 ( -0.00000, -0.00000) ( -0.00000, -0.00001) ( -0.00003, -0.00241)
   0  16  150104.7     66.6      0.00000 ( -0.00000, -0.00000) ( -0.00241, -0.00000) (  0.00001,  0.00000)
   0  17  150234.5     66.6      0.00000 (  0.00000, -0.00040) ( -0.00000,  0.00000) ( -0.00000,  0.00000)
   0  18  150235.7     66.6     -0.00000 (  0.00000,  0.00000) ( -0.00000, -0.00000) (  0.00000, -0.00000)
   0  19  154895.4     64.6      0.00000 ( -0.00000, -0.00000) ( -0.09079, -0.00000) (  0.00022,  0.00000)
   0  20  154896.0     64.6     -0.00000 ( -0.00000,  0.00000) ( -0.00022,  0.00000) ( -0.09079,  0.00047)
   0  21  170129.2     58.8     -0.00000 (  0.00000,  0.00000) (  0.00035,  0.00000) ( -0.00000, -0.00000)
   0  22  170129.2     58.8      0.00000 (  0.00000, -0.00000) (  0.00000, -0.00000) (  0.00035, -0.00016)
   0  23  170129.3     58.8     -0.00000 ( -0.00000,  0.00000) ( -0.00000, -0.00000) (  0.00000, -0.00000)
   0  24  174648.5     57.3      0.00000 (  0.00000, -0.00000) ( -0.00000,  0.00000) (  0.00000, -0.00000)
   0  25  174649.1     57.3      0.00000 ( -0.00000,  0.00000) ( -0.00004, -0.00000) (  0.00000,  0.00000)
   0  26  174649.2     57.3     -0.00000 (  0.00000,  0.00000) (  0.00000,  0.00000) (  0.00000,  0.00000)
   0  27  178139.8     56.1      0.00000 ( -0.00000, -0.00000) ( -0.00003, -0.00000) ( -0.00000, -0.00000)
   0  28  178139.8     56.1     -0.00000 ( -0.00000, -0.00000) (  0.00000,  0.00000) ( -0.00004, -0.00000)
   0  29  178206.0     56.1      0.00000 ( -0.00000,  0.00000) ( -0.00000, -0.00000) ( -0.00000,  0.00000)
   0  30  178213.8     56.1     -0.00000 ( -0.00000,  0.00000) ( -0.00000,  0.00000) ( -0.00000, -0.00000)
   0  31  178287.5     56.1     -0.00000 ( -0.00000, -0.00000) ( -0.00020, -0.00000) (  0.00000,  0.00000)
   0  32  178287.9     56.1      0.00000 ( -0.00000,  0.00000) ( -0.00000,  0.00000) ( -0.00012,  0.00013)
   0  33  179076.3     55.8      0.00000 (  0.00000,  0.00000) (  0.00141,  0.00000) ( -0.00000, -0.00000)
   0  34  179080.0     55.8      0.00000 (  0.00000, -0.00000) (  0.00000,  0.00000) ( -0.00000, -0.00000)
   0  35  179080.1     55.8     -0.00000 (  0.00000, -0.00000) (  0.00000,  0.00000) ( -0.00000,  0.00000)
   0  36  182988.0     54.6      0.00000 ( -0.00000,  0.00000) ( -0.00011,  0.00000) ( -0.04380,  0.00001)
   0  37  182991.5     54.6     -0.00000 ( -0.00000, -0.00000) ( -0.04378, -0.00000) (  0.00011,  0.00000)
   0  38  185553.5     53.9     -0.00000 ( -0.00000,  0.00000) ( -0.00000,  0.00000) (  0.00000, -0.00000)
   0  39  186665.1     53.6      0.00000 (  0.00000, -0.00000) (  0.00000, -0.00000) ( -0.00000,  0.00000)
   0  40  186747.6     53.5     -0.00000 ( -0.00000,  0.00000) (  0.00000, -0.00000) (  0.00000, -0.00000)

-------------------------------------------------------------------------------------------------------
                    SOC CORRECTED CD SPECTRUM VIA TRANSITION VELOCITY DIPOLE MOMENTS                   
-------------------------------------------------------------------------------------------------------
   State    Energy  Wavelengt      R               MX                    MY                    MZ  
            (cm-1)    (nm)     (1e40*sgs)         (au)                  (au)                  (au) 
-------------------------------------------------------------------------------------------------------
   0   1   78252.3    127.8     -0.00000 (  0.00000, -0.00000) ( -0.00000,  0.00000) (  0.00000, -0.00000)
   0   2   78252.3    127.8      0.00000 ( -0.00000, -0.00000) (  0.00000,  0.00000) (  0.00000, -0.00000)
   0   3   78376.0    127.6      0.00000 ( -0.00000,  0.00000) ( -0.00001,  0.00000) ( -0.00207,  0.00056)
   0   4   78376.6    127.6     -0.00000 (  0.00000,  0.00000) (  0.00215,  0.00000) ( -0.00001, -0.00000)
   0   5   78506.3    127.4     -0.00000 (  0.00000, -0.00071) (  0.00000,  0.00000) ( -0.00000,  0.00000)
   0   6   78506.8    127.4      0.00000 (  0.00000,  0.00000) (  0.00000,  0.00000) (  0.00000, -0.00000)
   0   7   83774.4    119.4     -0.00000 ( -0.00000, -0.00000) ( -0.09109, -0.00000) (  0.00022,  0.00000)
   0   8   83775.0    119.4      0.00000 (  0.00000,  0.00000) (  0.00022,  0.00000) (  0.09109,  0.00047)
   0   9  103192.1     96.9     -0.00000 (  0.00000, -0.00000) ( -0.00000,  0.00000) ( -0.00000,  0.00000)
   0  10  103192.2     96.9     -0.00000 (  0.00000, -0.00000) (  0.00003,  0.00000) ( -0.00000, -0.00000)
   0  11  103192.2     96.9      0.00000 ( -0.00000,  0.00000) ( -0.00000,  0.00000) ( -0.00003,  0.00000)
   0  12  119473.6     83.7      0.00000 ( -0.00000,  0.00000) (  0.00000,  0.00000) ( -0.00000, -0.00000)
   0  13  149981.1     66.7     -0.00000 ( -0.00000,  0.00000) (  0.00000,  0.00000) (  0.00000,  0.00000)
   0  14  149981.1     66.7      0.00000 (  0.00000,  0.00000) ( -0.00000, -0.00000) (  0.00000, -0.00000)
   0  15  150104.1     66.6      0.00000 ( -0.00000, -0.00000) ( -0.00000, -0.00001) ( -0.00003, -0.00241)
   0  16  150104.7     66.6     -0.00000 ( -0.00000, -0.00000) ( -0.00241, -0.00000) (  0.00001,  0.00000)
   0  17  150234.5     66.6     -0.00000 (  0.00000, -0.00040) ( -0.00000,  0.00000) ( -0.00000,  0.00000)
   0  18  150235.7     66.6      0.00000 (  0.00000,  0.00000) ( -0.00000, -0.00000) (  0.00000, -0.00000)
   0  19  154895.4     64.6     -0.00000 ( -0.00000, -0.00000) ( -0.09079, -0.00000) (  0.00022,  0.00000)
   0  20  154896.0     64.6      0.00000 ( -0.00000,  0.00000) ( -0.00022,  0.00000) ( -0.09079,  0.00047)
   0  21  170129.2     58.8      0.00000 (  0.00000,  0.00000) (  0.00035,  0.00000) ( -0.00000, -0.00000)
   0  22  170129.2     58.8     -0.00000 (  0.00000, -0.00000) (  0.00000, -0.00000) (  0.00035, -0.00016)
   0  23  170129.3     58.8      0.00000 ( -0.00000,  0.00000) ( -0.00000, -0.00000) (  0.00000, -0.00000)
   0  24  174648.5     57.3     -0.00000 (  0.00000, -0.00000) ( -0.00000,  0.00000) (  0.00000, -0.00000)
   0  25  174649.1     57.3     -0.00000 ( -0.00000,  0.00000) ( -0.00004, -0.00000) (  0.00000,  0.00000)
   0  26  174649.2     57.3      0.00000 (  0.00000,  0.00000) (  0.00000,  0.00000) (  0.00000,  0.00000)
   0  27  178139.8     56.1     -0.00000 ( -0.00000, -0.00000) ( -0.00003, -0.00000) ( -0.00000, -0.00000)
   0  28  178139.8     56.1      0.00000 ( -0.00000, -0.00000) (  0.00000,  0.00000) ( -0.00004, -0.00000)
   0  29  178206.0     56.1      0.00000 ( -0.00000,  0.00000) ( -0.00000, -0.00000) ( -0.00000,  0.00000)
   0  30  178213.8     56.1     -0.00000 ( -0.00000,  0.00000) ( -0.00000,  0.00000) ( -0.00000, -0.00000)
   0  31  178287.5     56.1      0.00000 ( -0.00000, -0.00000) ( -0.00020, -0.00000) (  0.00000,  0.00000)
   0  32  178287.9     56.1     -0.00000 ( -0.00000,  0.00000) ( -0.00000,  0.00000) ( -0.00012,  0.00013)
   0  33  179076.3     55.8     -0.00000 (  0.00000,  0.00000) (  0.00141,  0.00000) ( -0.00000, -0.00000)
   0  34  179080.0     55.8      0.00000 (  0.00000, -0.00000) (  0.00000,  0.00000) ( -0.00000, -0.00000)
   0  35  179080.1     55.8     -0.00000 (  0.00000, -0.00000) (  0.00000,  0.00000) ( -0.00000,  0.00000)
   0  36  182988.0     54.6     -0.00000 ( -0.00000,  0.00000) ( -0.00011,  0.00000) ( -0.04380,  0.00001)
   0  37  182991.5     54.6      0.00000 ( -0.00000, -0.00000) ( -0.04378, -0.00000) (  0.00011,  0.00000)
   0  38  185553.5     53.9      0.00000 ( -0.00000,  0.00000) ( -0.00000,  0.00000) (  0.00000, -0.00000)
   0  39  186665.1     53.6     -0.00000 (  0.00000, -0.00000) (  0.00000, -0.00000) ( -0.00000,  0.00000)
   0  40  186747.6     53.5      0.00000 ( -0.00000,  0.00000) (  0.00000, -0.00000) (  0.00000, -0.00000)

*The complex numbers are printed as (real, imaginary)

The electronic components of the SOC ground state dipole moment in a.u. are:
           X                     Y                     Z
( -0.13632,  0.00000) (  0.00000,  0.00000) (  0.00000, -0.00000)

Total run time:        1.860 sec

           *** ORCA-CIS/TD-DFT FINISHED WITHOUT ERROR ***

Maximum memory used throughout the entire CIS-calculation: 61.5 MB

---------------------------
SOC CIS/TD-DFT TOTAL ENERGY
---------------------------

    E(SCF)        =   -100.389998127 Eh
    E(SOC CIS)    =      0.356542262 Eh (SOC Root  1)
    ----------------------------- ---------
    E(tot)        =   -100.033455864 Eh


-------------------------   --------------------
FINAL SINGLE POINT ENERGY      -100.033455864304
-------------------------   --------------------


                            ***************************************
                            *     ORCA property calculations      *
                            ***************************************

                                    ---------------------
                                    Active property flags
                                    ---------------------
   (+) Dipole Moment


------------------------------------------------------------------------------
                       ORCA ELECTRIC PROPERTIES CALCULATION
------------------------------------------------------------------------------

Dipole Moment Calculation                       ... on
Quadrupole Moment Calculation                   ... off
Polarizability Calculation                      ... off
GBWName                                         ... orca.gbw
Electron density                                ... orca.scfp
The origin for moment calculation is the CENTER OF MASS  = ( 6.766683,  7.558905  7.558905)

-------------
DIPOLE MOMENT
-------------
                                X             Y             Z
Electronic contribution:     -0.13631       0.00000       0.00000
Nuclear contribution   :      0.87422      -0.00000      -0.00000
                        -----------------------------------------
Total Dipole Moment    :      0.73791      -0.00000      -0.00000
                        -----------------------------------------
Magnitude (a.u.)       :      0.73791
Magnitude (Debye)      :      1.87562



--------------------
Rotational spectrum 
--------------------
 
Rotational constants in cm-1:     0.000000    20.256961    20.256961 
Rotational constants in MHz :     0.000000 607288.426438 607288.426438 

 Dipole components along the rotational axes: 
x,y,z [a.u.] :    -0.737910    -0.000000     0.000000 
x,y,z [Debye]:    -1.875618    -0.000000     0.000000 

 

Timings for individual modules:

Sum of individual times         ...        3.055 sec (=   0.051 min)
GTO integral calculation        ...        0.117 sec (=   0.002 min)   3.8 %
SCF iterations                  ...        1.070 sec (=   0.018 min)  35.0 %
CIS module                      ...        1.868 sec (=   0.031 min)  61.2 %
                             ****ORCA TERMINATED NORMALLY****
TOTAL RUN TIME: 0 days 0 hours 0 minutes 3 seconds 136 msec
