       4
 i =        4, E =       -22.8710948826
  O         4.1848989125        4.9161021558        3.8927781909
  C         4.0595592296        3.7121608804        3.9649318530
  H         3.8151628720        3.0887969911        3.0720953360
  H         4.1840364696        3.1621527283        4.9280594809
