
                                 *****************
                                 * O   R   C   A *
                                 *****************

                                            #,                                       
                                            ###                                      
                                            ####                                     
                                            #####                                    
                                            ######                                   
                                           ########,                                 
                                     ,,################,,,,,                         
                               ,,#################################,,                 
                          ,,##########################################,,             
                       ,#########################################, ''#####,          
                    ,#############################################,,   '####,        
                  ,##################################################,,,,####,       
                ,###########''''           ''''###############################       
              ,#####''   ,,,,##########,,,,          '''####'''          '####       
            ,##' ,,,,###########################,,,                        '##       
           ' ,,###''''                  '''############,,,                           
         ,,##''                                '''############,,,,        ,,,,,,###''
      ,#''                                            '''#######################'''  
     '                                                          ''''####''''         
             ,#######,   #######,   ,#######,      ##                                
            ,#'     '#,  ##    ##  ,#'     '#,    #''#        ######   ,####,        
            ##       ##  ##   ,#'  ##            #'  '#       #        #'  '#        
            ##       ##  #######   ##           ,######,      #####,   #    #        
            '#,     ,#'  ##    ##  '#,     ,#' ,#      #,         ##   #,  ,#        
             '#######'   ##     ##  '#######'  #'      '#     #####' # '####'        



                  #######################################################
                  #                        -***-                        #
                  #          Department of theory and spectroscopy      #
                  #    Directorship and core code : Frank Neese         #
                  #        Max Planck Institute fuer Kohlenforschung    #
                  #                Kaiser Wilhelm Platz 1               #
                  #                 D-45470 Muelheim/Ruhr               #
                  #                      Germany                        #
                  #                                                     #
                  #                  All rights reserved                #
                  #                        -***-                        #
                  #######################################################


                         Program Version 5.0.4 -  RELEASE  -


 With contributions from (in alphabetic order):
   Daniel Aravena         : Magnetic Suceptibility
   Michael Atanasov       : Ab Initio Ligand Field Theory (pilot matlab implementation)
   Alexander A. Auer      : GIAO ZORA, VPT2 properties, NMR spectrum
   Ute Becker             : Parallelization
   Giovanni Bistoni       : ED, misc. LED, open-shell LED, HFLD
   Martin Brehm           : Molecular dynamics
   Dmytro Bykov           : SCF Hessian
   Vijay G. Chilkuri      : MRCI spin determinant printing, contributions to CSF-ICE
   Dipayan Datta          : RHF DLPNO-CCSD density
   Achintya Kumar Dutta   : EOM-CC, STEOM-CC
   Dmitry Ganyushin       : Spin-Orbit,Spin-Spin,Magnetic field MRCI
   Miquel Garcia          : C-PCM and meta-GGA Hessian, CC/C-PCM, Gaussian charge scheme
   Yang Guo               : DLPNO-NEVPT2, F12-NEVPT2, CIM, IAO-localization
   Andreas Hansen         : Spin unrestricted coupled pair/coupled cluster methods
   Benjamin Helmich-Paris : MC-RPA, TRAH-SCF, COSX integrals
   Lee Huntington         : MR-EOM, pCC
   Robert Izsak           : Overlap fitted RIJCOSX, COSX-SCS-MP3, EOM
   Marcus Kettner         : VPT2
   Christian Kollmar      : KDIIS, OOCD, Brueckner-CCSD(T), CCSD density, CASPT2, CASPT2-K
   Simone Kossmann        : Meta GGA functionals, TD-DFT gradient, OOMP2, MP2 Hessian
   Martin Krupicka        : Initial AUTO-CI
   Lucas Lang             : DCDCAS
   Marvin Lechner         : AUTO-CI (C++ implementation), FIC-MRCC
   Dagmar Lenk            : GEPOL surface, SMD
   Dimitrios Liakos       : Extrapolation schemes; Compound Job, initial MDCI parallelization
   Dimitrios Manganas     : Further ROCIS development; embedding schemes
   Dimitrios Pantazis     : SARC Basis sets
   Anastasios Papadopoulos: AUTO-CI, single reference methods and gradients
   Taras Petrenko         : DFT Hessian,TD-DFT gradient, ASA, ECA, R-Raman, ABS, FL, XAS/XES, NRVS
   Peter Pinski           : DLPNO-MP2, DLPNO-MP2 Gradient
   Christoph Reimann      : Effective Core Potentials
   Marius Retegan         : Local ZFS, SOC
   Christoph Riplinger    : Optimizer, TS searches, QM/MM, DLPNO-CCSD(T), (RO)-DLPNO pert. Triples
   Tobias Risthaus        : Range-separated hybrids, TD-DFT gradient, RPA, STAB
   Michael Roemelt        : Original ROCIS implementation
   Masaaki Saitow         : Open-shell DLPNO-CCSD energy and density
   Barbara Sandhoefer     : DKH picture change effects
   Avijit Sen             : IP-ROCIS
   Kantharuban Sivalingam : CASSCF convergence, NEVPT2, FIC-MRCI
   Bernardo de Souza      : ESD, SOC TD-DFT
   Georgi Stoychev        : AutoAux, RI-MP2 NMR, DLPNO-MP2 response
   Willem Van den Heuvel  : Paramagnetic NMR
   Boris Wezisla          : Elementary symmetry handling
   Frank Wennmohs         : Technical directorship


 We gratefully acknowledge several colleagues who have allowed us to
 interface, adapt or use parts of their codes:
   Stefan Grimme, W. Hujo, H. Kruse, P. Pracht,  : VdW corrections, initial TS optimization,
                  C. Bannwarth, S. Ehlert          DFT functionals, gCP, sTDA/sTD-DF
   Ed Valeev, F. Pavosevic, A. Kumar             : LibInt (2-el integral package), F12 methods
   Garnet Chan, S. Sharma, J. Yang, R. Olivares  : DMRG
   Ulf Ekstrom                                   : XCFun DFT Library
   Mihaly Kallay                                 : mrcc  (arbitrary order and MRCC methods)
   Jiri Pittner, Ondrej Demel                    : Mk-CCSD
   Frank Weinhold                                : gennbo (NPA and NBO analysis)
   Christopher J. Cramer and Donald G. Truhlar   : smd solvation model
   Lars Goerigk                                  : TD-DFT with DH, B97 family of functionals
   V. Asgeirsson, H. Jonsson                     : NEB implementation
   FAccTs GmbH                                   : IRC, NEB, NEB-TS, DLPNO-Multilevel, CI-OPT
                                                   MM, QMMM, 2- and 3-layer-ONIOM, Crystal-QMMM,
                                                   LR-CPCM, SF, NACMEs, symmetry and pop. for TD-DFT,
                                                   nearIR, NL-DFT gradient (VV10), updates on ESD,
                                                   ML-optimized integration grids
   S Lehtola, MJT Oliveira, MAL Marques          : LibXC Library
   Liviu Ungur et al                             : ANISO software


 Your calculation uses the libint2 library for the computation of 2-el integrals
 For citations please refer to: http://libint.valeyev.net

 Your ORCA version has been built with support for libXC version: 5.1.0
 For citations please refer to: https://tddft.org/programs/libxc/

 This ORCA versions uses:
   CBLAS   interface :  Fast vector & matrix operations
   LAPACKE interface :  Fast linear algebra routines
   SCALAPACK package :  Parallel linear algebra routines
   Shared memory     :  Shared parallel matrices
   BLAS/LAPACK       :  OpenBLAS 0.3.15  USE64BITINT DYNAMIC_ARCH NO_AFFINITY SkylakeX SINGLE_THREADED
        Core in use  :  SkylakeX
   Copyright (c) 2011-2014, The OpenBLAS Project


Reading of a custom orbital basis requested
Basis file: ../../../basis_orca
READING GTO-BASIS: HYDROGEN
READING GTO-BASIS: CARBON
READING GTO-BASIS: OXYGEN
READING GTO-BASIS: FLUORINE
READING GTO-BASIS: SULFUR
READING GTO-BASIS: CHLORINE
READING GTO-BASIS: SELENIUM
READING GTO-BASIS: BROMINE
READING GTO-BASIS: TELLURIUM
READING GTO-BASIS: IODINE
Basis read successfully!

================================================================================

----- Orbital basis set information -----
Basis read from file: ../../../basis_orca

================================================================================
                                        WARNINGS
                       Please study these warnings very carefully!
================================================================================

INFO   : Checking CIS options ...

WARNING: (CIS/TDDFT): Spin-orbit needs TRIPLETS set to TRUE
  ===> : ajusting flags

WARNING: CIS/ROCIS methods need fully converged wavefunctions
  ===> : Setting SCFConvForced true
         You can overwrite this default with %scf ConvForced false 


INFO   : the flag for use of the SHARK integral package has been found!

================================================================================
                                       INPUT FILE
================================================================================
NAME = orca.inp
|  1> !PBE0 nososcf NoRI
|  2> %SCF Guess HCore
|  3>      DIISMaxIt -1
|  4> end
|  5> %TDDFT NROOTS 10
|  6>        DOSOC TRUE
|  7> end
|  8> %basis
|  9>         GTOName "../../../basis_orca"
| 10> end
| 11> * xyz 0 1  
| 12> S         5.0764699609        4.7916714754        3.6981496875
| 13>   C         3.9847468513        3.6366362784        3.9810021541
| 14>   H         3.3808128722        3.1968141985        3.1782412392
| 15>   H         3.8004562762        3.2426452093        4.9880190115
| 16> *
| 17> 
| 18>                          ****END OF INPUT****
================================================================================

                       ****************************
                       * Single Point Calculation *
                       ****************************

---------------------------------
CARTESIAN COORDINATES (ANGSTROEM)
---------------------------------
  S      5.076470    4.791671    3.698150
  C      3.984747    3.636636    3.981002
  H      3.380813    3.196814    3.178241
  H      3.800456    3.242645    4.988019

----------------------------
CARTESIAN COORDINATES (A.U.)
----------------------------
  NO LB      ZA    FRAG     MASS         X           Y           Z
   0 S    16.0000    0    32.060    9.593138    9.054947    6.988490
   1 C     6.0000    0    12.011    7.530080    6.872247    7.523004
   2 H     1.0000    0     1.008    6.388810    6.041103    6.006006
   3 H     1.0000    0     1.008    7.181822    6.127711    9.425990

--------------------------------
INTERNAL COORDINATES (ANGSTROEM)
--------------------------------
 S      0   0   0     0.000000000000     0.00000000     0.00000000
 C      1   0   0     1.614302069690     0.00000000     0.00000000
 H      2   1   0     1.096633393423   122.08250920     0.00000000
 H      2   1   3     1.096938890590   122.10417712   180.00560960

---------------------------
INTERNAL COORDINATES (A.U.)
---------------------------
 S      0   0   0     0.000000000000     0.00000000     0.00000000
 C      1   0   0     3.050588809136     0.00000000     0.00000000
 H      2   1   0     2.072336782882   122.08250920     0.00000000
 H      2   1   3     2.072914088863   122.10417712   180.00560960

---------------------
BASIS SET INFORMATION
---------------------
There are 3 groups of distinct atoms

 Group   1 Type S   : 13s10p2d1f contracted to 8s5p2d1f pattern {51111211/61111/11/1}
 Group   2 Type C   : 10s6p2d1f contracted to 5s3p2d1f pattern {52111/411/11/1}
 Group   3 Type H   : 5s2p1d contracted to 3s2p1d pattern {311/11/1}

Atom   0S    basis set group =>   1
Atom   1C    basis set group =>   2
Atom   2H    basis set group =>   3
Atom   3H    basis set group =>   3
------------------------------------------------------------------------------
                           ORCA GTO INTEGRAL CALCULATION
------------------------------------------------------------------------------
------------------------------------------------------------------------------
                   ___                                                        
                  /   \      - P O W E R E D   B Y -                         
                 /     \                                                     
                 |  |  |   _    _      __       _____    __    __             
                 |  |  |  | |  | |    /  \     |  _  \  |  |  /  |          
                  \  \/   | |  | |   /    \    | | | |  |  | /  /          
                 / \  \   | |__| |  /  /\  \   | |_| |  |  |/  /          
                |  |  |   |  __  | /  /__\  \  |    /   |      \           
                |  |  |   | |  | | |   __   |  |    \   |  |\   \          
                \     /   | |  | | |  |  |  |  | |\  \  |  | \   \       
                 \___/    |_|  |_| |__|  |__|  |_| \__\ |__|  \__/        
                                                                              
                      - O R C A' S   B I G   F R I E N D -                    
                                      &                                       
                       - I N T E G R A L  F E E D E R -                       
                                                                              
 v1 FN, 2020, v2 2021                                                         
------------------------------------------------------------------------------


Reading SHARK input file orca.SHARKINP.tmp ... ok
----------------------
SHARK INTEGRAL PACKAGE
----------------------

Number of atoms                             ...      4
Number of basis functions                   ...     99
Number of shells                            ...     39
Maximum angular momentum                    ...      3
Integral batch strategy                     ... SHARK/LIBINT Hybrid
RI-J (if used) integral strategy            ... SPLIT-RIJ (Revised 2003 algorithm where possible)
Printlevel                                  ...      1
Contraction scheme used                     ... SEGMENTED contraction
Coulomb Range Separation                    ... NOT USED
Exchange Range Separation                   ... NOT USED
Finite Nucleus Model                        ... NOT USED
Auxiliary Coulomb fitting basis             ... NOT available
Auxiliary J/K fitting basis                 ... NOT available
Auxiliary Correlation fitting basis         ... NOT available
Auxiliary 'external' fitting basis          ... NOT available
Integral threshold                          ...     1.000000e-10
Primitive cut-off                           ...     1.000000e-11
Primitive pair pre-selection threshold      ...     1.000000e-11

Calculating pre-screening integrals         ... done (  0.0 sec) Dimension = 39
Organizing shell pair data                  ... done (  0.0 sec)
Shell pair information
Total number of shell pairs                 ...       780
Shell pairs after pre-screening             ...       766
Total number of primitive shell pairs       ...      1940
Primitive shell pairs kept                  ...      1708
          la=0 lb=0:    177 shell pairs
          la=1 lb=0:    227 shell pairs
          la=1 lb=1:     78 shell pairs
          la=2 lb=0:    114 shell pairs
          la=2 lb=1:     72 shell pairs
          la=2 lb=2:     21 shell pairs
          la=3 lb=0:     38 shell pairs
          la=3 lb=1:     24 shell pairs
          la=3 lb=2:     12 shell pairs
          la=3 lb=3:      3 shell pairs

Calculating one electron integrals          ... done (  0.0 sec)
Calculating Nuclear repulsion               ... done (  0.0 sec) ENN=     44.642630142725 Eh

SHARK setup successfully completed in   0.1 seconds

Maximum memory used throughout the entire GTOINT-calculation: 13.1 MB
-------------------------------------------------------------------------------
                                 ORCA SCF
-------------------------------------------------------------------------------

------------
SCF SETTINGS
------------
Hamiltonian:
 Density Functional     Method          .... DFT(GTOs)
 Exchange Functional    Exchange        .... PBE
   PBE kappa parameter   XKappa         ....  0.804000
   PBE mue parameter    XMuePBE         ....  0.219520
 Correlation Functional Correlation     .... PBE
   PBE beta parameter  CBetaPBE         ....  0.066725
 LDA part of GGA corr.  LDAOpt          .... PW91-LDA
 Gradients option       PostSCFGGA      .... off
 Hybrid DFT is turned on
   Fraction HF Exchange ScalHFX         ....  0.250000
   Scaling of DF-GGA-X  ScalDFX         ....  0.750000
   Scaling of DF-GGA-C  ScalDFC         ....  1.000000
   Scaling of DF-LDA-C  ScalLDAC        ....  1.000000
   Perturbative correction              ....  0.000000
   Density functional embedding theory  .... OFF
   NL short-range parameter             ....  6.900000


General Settings:
 Integral files         IntName         .... orca
 Hartree-Fock type      HFTyp           .... RHF
 Total Charge           Charge          ....    0
 Multiplicity           Mult            ....    1
 Number of Electrons    NEL             ....   24
 Basis Dimension        Dim             ....   99
 Nuclear Repulsion      ENuc            ....     44.6426301427 Eh

Convergence Acceleration:
 DIIS                   CNVDIIS         .... on
   Start iteration      DIISMaxIt       ....    -1
   Startup error        DIISStart       ....  0.200000
   # of expansion vecs  DIISMaxEq       ....     5
   Bias factor          DIISBfac        ....   1.050
   Max. coefficient     DIISMaxC        ....  10.000
 Trust-Rad. Augm. Hess. CNVTRAH         .... auto
   Auto Start mean grad. ratio tolernc. ....  1.125000
   Auto Start start iteration           ....    20
   Auto Start num. interpolation iter.  ....    10
   Max. Number of Micro iterations      ....    16
   Max. Number of Macro iterations      .... Maxiter - #DIIS iter
   Number of Davidson start vectors     ....     2
   Converg. threshold I  (grad. norm)   ....   5.000e-05
   Converg. threshold II (energy diff.) ....   1.000e-06
   Grad. Scal. Fac. for Micro threshold ....   0.100
   Minimum threshold for Micro iter.    ....   0.010
   NR start threshold (gradient norm)   ....   0.001
   Initial trust radius                 ....   0.400
   Minimum AH scaling param. (alpha)    ....   1.000
   Maximum AH scaling param. (alpha)    .... 1000.000
   Orbital update algorithm             .... Taylor
   White noise on init. David. guess    .... on
   Maximum white noise                  ....   0.010
   Quad. conv. algorithm                .... NR
 SOSCF                  CNVSOSCF        .... off
 Level Shifting         CNVShift        .... on
   Level shift para.    LevelShift      ....    0.2500
   Turn off err/grad.   ShiftErr        ....    0.0010
 Zerner damping         CNVZerner       .... off
 Static damping         CNVDamp         .... on
   Fraction old density DampFac         ....    0.7000
   Max. Damping (<1)    DampMax         ....    0.9800
   Min. Damping (>=0)   DampMin         ....    0.0000
   Turn off err/grad.   DampErr         ....    0.1000
 Fernandez-Rico         CNVRico         .... off

SCF Procedure:
 Maximum # iterations   MaxIter         ....   125
 SCF integral mode      SCFMode         .... Direct
   Integral package                     .... SHARK and LIBINT hybrid scheme
 Reset frequency        DirectResetFreq ....    20
 Integral Threshold     Thresh          ....  1.000e-10 Eh
 Primitive CutOff       TCut            ....  1.000e-11 Eh

Convergence Tolerance:
 Convergence Check Mode ConvCheckMode   .... Total+1el-Energy
 Convergence forced     ConvForced      .... 1
 Energy Change          TolE            ....  1.000e-06 Eh
 1-El. energy change                    ....  1.000e-03 Eh
 DIIS Error             TolErr          ....  1.000e-06


Diagonalization of the overlap matrix:
Smallest eigenvalue                        ... 1.228e-03
Time for diagonalization                   ...    0.002 sec
Threshold for overlap eigenvalues          ... 1.000e-08
Number of eigenvalues below threshold      ... 0
Time for construction of square roots      ...    0.003 sec
Total time needed                          ...    0.005 sec

--------------------
INITIAL GUESS: HCORE
--------------------
                      -----------------
                      INTIAL GUESS DONE 
                      -----------------
-------------------
DFT GRID GENERATION
-------------------

General Integration Accuracy     IntAcc      ... 4.388
Radial Grid Type                 RadialGrid  ... OptM3 with GC (2021)
Angular Grid (max. ang.)         AngularGrid ... 4 (Lebedev-302)
Angular grid pruning method      GridPruning ... 4 (adaptive)
Weight generation scheme         WeightScheme... Becke
Basis function cutoff            BFCut       ... 1.0000e-10
Integration weight cutoff        WCut        ... 1.0000e-14
Angular grids for H and He will be reduced by one unit
Partially contracted basis set               ... off
Rotationally invariant grid construction     ... off

Total number of grid points                  ...    20063
Total number of batches                      ...      316
Average number of points per batch           ...       63
Average number of grid points per atom       ...     5016
Time for grid setup =    0.114 sec

--------------
SCF ITERATIONS
--------------
ITER       Energy         Delta-E        Max-DP      RMS-DP      [F,P]     Damp
               ***  Starting incremental Fock matrix formation  ***
  0   -376.0427777376   0.000000000000 4.33340074  0.10852614  5.1964412 0.7000
  1   -394.9134080050 -18.870630267405 1.74903886  0.05056919  3.0846565 0.7000
                               ***Turning on DIIS***
  2   -407.3510639555 -12.437655950571 1.80117944  0.04383482  1.9976437 0.7000
  3   -416.2747429600  -8.923679004462 1.28501998  0.03118034  1.3007660 0.7000
  4   -422.5516586458  -6.276915685776 0.90236629  0.02196914  0.8968458 0.7000
  5   -426.9551530530  -4.403494407215 0.62909603  0.01539607  0.6244958 0.7000
  6   -430.0466077236  -3.091454670581 0.43795061  0.01077268  0.4359299 0.7000
  7   -432.2160982974  -2.169490573795 0.30517100  0.00753565  0.3048430 0.7000
  8   -433.7374987132  -1.521400415861 0.21317634  0.00527426  0.2128994 0.7000
  9   -434.8037311689  -1.066232455652 0.14904317  0.00369118  0.1488871 0.7000
 10   -435.5506647141  -0.746933545217 0.10415866  0.00258262  0.1040599 0.7000
 11   -436.0738094778  -0.523144763675 0.24258315  0.00602346  0.0726781 0.0000
 12   -437.2954834840  -1.221674006180 0.00087630  0.00003541  0.0005865 0.0000
 13   -437.2954814708   0.000002013104 0.00035893  0.00001123  0.0013127 0.0000
 14   -437.2954843207  -0.000002849849 0.00025342  0.00000882  0.0004891 0.0000
                 **** Energy Check signals convergence ****

               *****************************************************
               *                     SUCCESS                       *
               *           SCF CONVERGED AFTER  15 CYCLES          *
               *****************************************************


----------------
TOTAL SCF ENERGY
----------------

Total Energy       :         -437.29548480 Eh          -11899.41510 eV

Components:
Nuclear Repulsion  :           44.64263014 Eh            1214.78772 eV
Electronic Energy  :         -481.93811495 Eh          -13114.20282 eV
One Electron Energy:         -690.81152366 Eh          -18797.93723 eV
Two Electron Energy:          208.87340872 Eh            5683.73441 eV

Virial components:
Potential Energy   :         -873.79635623 Eh          -23777.20766 eV
Kinetic Energy     :          436.50087143 Eh           11877.79257 eV
Virial Ratio       :            2.00182042


DFT components:
N(Alpha)           :       11.999999411737 electrons
N(Beta)            :       11.999999411737 electrons
N(Total)           :       23.999998823474 electrons
E(X)               :      -23.031188025381 Eh       
E(C)               :       -0.861910697643 Eh       
E(XC)              :      -23.893098723023 Eh       
DFET-embed. en.    :        0.000000000000 Eh       

---------------
SCF CONVERGENCE
---------------

  Last Energy change         ...   -4.8176e-07  Tolerance :   1.0000e-06
  Last MAX-Density change    ...    4.6156e-05  Tolerance :   1.0000e-05
  Last RMS-Density change    ...    1.7253e-06  Tolerance :   1.0000e-06
  Last DIIS Error            ...    7.6696e-05  Tolerance :   1.0000e-06

             **** THE GBW FILE WAS UPDATED (orca.gbw) ****
             **** DENSITY orca.scfp WAS UPDATED ****
             **** ENERGY FILE WAS UPDATED (orca.en.tmp) ****
             **** THE GBW FILE WAS UPDATED (orca.gbw) ****
             **** DENSITY orca.scfp WAS UPDATED ****
----------------
ORBITAL ENERGIES
----------------

  NO   OCC          E(Eh)            E(eV) 
   0   2.0000     -89.024896     -2422.4906 
   1   2.0000     -10.304466      -280.3988 
   2   2.0000      -8.004498      -217.8135 
   3   2.0000      -5.942057      -161.6916 
   4   2.0000      -5.939747      -161.6287 
   5   2.0000      -5.932247      -161.4246 
   6   2.0000      -0.822254       -22.3747 
   7   2.0000      -0.621130       -16.9018 
   8   2.0000      -0.480122       -13.0648 
   9   2.0000      -0.411035       -11.1848 
  10   2.0000      -0.336247        -9.1497 
  11   2.0000      -0.246768        -6.7149 
  12   0.0000      -0.094537        -2.5725 
  13   0.0000       0.055313         1.5052 
  14   0.0000       0.102917         2.8005 
  15   0.0000       0.116752         3.1770 
  16   0.0000       0.196014         5.3338 
  17   0.0000       0.242669         6.6034 
  18   0.0000       0.279010         7.5923 
  19   0.0000       0.279238         7.5984 
  20   0.0000       0.296155         8.0588 
  21   0.0000       0.316077         8.6009 
  22   0.0000       0.320709         8.7269 
  23   0.0000       0.353017         9.6061 
  24   0.0000       0.392661        10.6849 
  25   0.0000       0.424624        11.5546 
  26   0.0000       0.448893        12.2150 
  27   0.0000       0.533345        14.5131 
  28   0.0000       0.550875        14.9901 
  29   0.0000       0.645032        17.5522 
  30   0.0000       0.711094        19.3498 
  31   0.0000       0.790700        21.5160 
  32   0.0000       0.802270        21.8309 
  33   0.0000       0.803715        21.8702 
  34   0.0000       0.876590        23.8532 
  35   0.0000       1.020072        27.7576 
  36   0.0000       1.063693        28.9446 
  37   0.0000       1.071107        29.1463 
  38   0.0000       1.105116        30.0717 
  39   0.0000       1.236205        33.6388 
  40   0.0000       1.294622        35.2285 
  41   0.0000       1.316892        35.8344 
  42   0.0000       1.512658        41.1615 
  43   0.0000       1.513743        41.1910 
  44   0.0000       1.516070        41.2544 
  45   0.0000       1.559141        42.4264 
  46   0.0000       1.602459        43.6051 
  47   0.0000       1.615839        43.9692 
  48   0.0000       1.654310        45.0161 
  49   0.0000       1.658899        45.1409 
  50   0.0000       1.724111        46.9154 
  51   0.0000       1.728389        47.0319 
  52   0.0000       1.742484        47.4154 
  53   0.0000       1.811790        49.3013 
  54   0.0000       1.872303        50.9479 
  55   0.0000       1.874788        51.0156 
  56   0.0000       2.029957        55.2379 
  57   0.0000       2.072103        56.3848 
  58   0.0000       2.110931        57.4414 
  59   0.0000       2.187249        59.5181 
  60   0.0000       2.310335        62.8674 
  61   0.0000       2.316884        63.0456 
  62   0.0000       2.324605        63.2557 
  63   0.0000       2.543338        69.2077 
  64   0.0000       2.594419        70.5977 
  65   0.0000       2.619617        71.2834 
  66   0.0000       2.675114        72.7936 
  67   0.0000       2.731602        74.3307 
  68   0.0000       3.085273        83.9545 
  69   0.0000       3.109195        84.6055 
  70   0.0000       3.272581        89.0515 
  71   0.0000       3.307541        90.0028 
  72   0.0000       3.357097        91.3513 
  73   0.0000       3.432052        93.3909 
  74   0.0000       3.498948        95.2112 
  75   0.0000       3.583093        97.5009 
  76   0.0000       3.604782        98.0911 
  77   0.0000       3.658146        99.5432 
  78   0.0000       3.658730        99.5591 
  79   0.0000       3.822195       104.0072 
  80   0.0000       3.960196       107.7624 
  81   0.0000       4.005705       109.0008 
  82   0.0000       4.170100       113.4742 
  83   0.0000       4.186030       113.9077 
  84   0.0000       4.706289       128.0646 
  85   0.0000       4.901383       133.3734 
  86   0.0000       4.907898       133.5507 
  87   0.0000       5.100464       138.7907 
  88   0.0000       5.106588       138.9573 
  89   0.0000       5.375247       146.2679 
  90   0.0000       5.649654       153.7349 
  91   0.0000       6.395374       174.0270 
  92   0.0000       6.480642       176.3472 
  93   0.0000       6.846391       186.2998 
  94   0.0000      10.469636       284.8933 
  95   0.0000      40.939493      1114.0202 
  96   0.0000      69.896506      1901.9806 
  97   0.0000     305.668679      8317.6676 
  98   0.0000    1445.896149     39344.8345 

                    ********************************
                    * MULLIKEN POPULATION ANALYSIS *
                    ********************************

-----------------------
MULLIKEN ATOMIC CHARGES
-----------------------
   0 S :   -0.141246
   1 C :   -0.048957
   2 H :    0.095097
   3 H :    0.095107
Sum of atomic charges:    0.0000000

--------------------------------
MULLIKEN REDUCED ORBITAL CHARGES
--------------------------------
  0 S s       :     5.812795  s :     5.812795
      pz      :     3.883475  p :    10.217360
      px      :     3.185753
      py      :     3.148131
      dz2     :     0.012138  d :     0.101306
      dxz     :     0.011295
      dyz     :     0.011998
      dx2y2   :     0.029724
      dxy     :     0.036152
      f0      :     0.001103  f :     0.009786
      f+1     :     0.001062
      f-1     :     0.001240
      f+2     :     0.000266
      f-2     :     0.001707
      f+3     :     0.002190
      f-3     :     0.002217
  1 C s       :     3.187313  s :     3.187313
      pz      :     1.040764  p :     2.782016
      px      :     0.873794
      py      :     0.867458
      dz2     :     0.011423  d :     0.075343
      dxz     :     0.018460
      dyz     :     0.020987
      dx2y2   :     0.015129
      dxy     :     0.009345
      f0      :     0.000533  f :     0.004286
      f+1     :     0.000437
      f-1     :     0.000582
      f+2     :     0.000129
      f-2     :     0.001013
      f+3     :     0.000725
      f-3     :     0.000867
  2 H s       :     0.859518  s :     0.859518
      pz      :     0.017770  p :     0.043304
      px      :     0.013927
      py      :     0.011607
      dz2     :     0.000731  d :     0.002081
      dxz     :     0.000356
      dyz     :     0.000355
      dx2y2   :     0.000317
      dxy     :     0.000322
  3 H s       :     0.859544  s :     0.859544
      pz      :     0.023067  p :     0.043270
      px      :     0.009155
      py      :     0.011047
      dz2     :     0.000653  d :     0.002080
      dxz     :     0.000606
      dyz     :     0.000539
      dx2y2   :     0.000133
      dxy     :     0.000150


                     *******************************
                     * LOEWDIN POPULATION ANALYSIS *
                     *******************************

----------------------
LOEWDIN ATOMIC CHARGES
----------------------
   0 S :    0.256182
   1 C :   -0.067767
   2 H :   -0.094298
   3 H :   -0.094117

-------------------------------
LOEWDIN REDUCED ORBITAL CHARGES
-------------------------------
  0 S s       :     5.450895  s :     5.450895
      pz      :     3.771168  p :    10.106181
      px      :     3.181764
      py      :     3.153249
      dz2     :     0.021293  d :     0.162930
      dxz     :     0.024170
      dyz     :     0.027728
      dx2y2   :     0.032064
      dxy     :     0.057675
      f0      :     0.003047  f :     0.023812
      f+1     :     0.002560
      f-1     :     0.002862
      f+2     :     0.000363
      f-2     :     0.005959
      f+3     :     0.004574
      f-3     :     0.004446
  1 C s       :     2.749078  s :     2.749078
      pz      :     1.075162  p :     2.984147
      px      :     0.951981
      py      :     0.957003
      dz2     :     0.053779  d :     0.314559
      dxz     :     0.076542
      dyz     :     0.087345
      dx2y2   :     0.046290
      dxy     :     0.050603
      f0      :     0.003092  f :     0.019983
      f+1     :     0.002433
      f-1     :     0.002956
      f+2     :     0.000604
      f-2     :     0.004927
      f+3     :     0.002791
      f-3     :     0.003181
  2 H s       :     0.887331  s :     0.887331
      pz      :     0.074207  p :     0.181759
      px      :     0.058335
      py      :     0.049217
      dz2     :     0.007281  d :     0.025207
      dxz     :     0.005929
      dyz     :     0.004915
      dx2y2   :     0.003190
      dxy     :     0.003891
  3 H s       :     0.887305  s :     0.887305
      pz      :     0.094187  p :     0.181631
      px      :     0.040351
      py      :     0.047093
      dz2     :     0.008781  d :     0.025181
      dxz     :     0.006597
      dyz     :     0.007247
      dx2y2   :     0.001209
      dxy     :     0.001347


                      *****************************
                      * MAYER POPULATION ANALYSIS *
                      *****************************

  NA   - Mulliken gross atomic population
  ZA   - Total nuclear charge
  QA   - Mulliken gross atomic charge
  VA   - Mayer's total valence
  BVA  - Mayer's bonded valence
  FA   - Mayer's free valence

  ATOM       NA         ZA         QA         VA         BVA        FA
  0 S     16.1412    16.0000    -0.1412     2.1537     2.1537    -0.0000
  1 C      6.0490     6.0000    -0.0490     4.0276     4.0276     0.0000
  2 H      0.9049     1.0000     0.0951     0.9860     0.9860     0.0000
  3 H      0.9049     1.0000     0.0951     0.9860     0.9860     0.0000

  Mayer bond orders larger than 0.100000
B(  0-S ,  1-C ) :   2.1068 B(  1-C ,  2-H ) :   0.9604 B(  1-C ,  3-H ) :   0.9604 


-------
TIMINGS
-------

Total SCF time: 0 days 0 hours 0 min 9 sec 

Total time                  ....       9.569 sec
Sum of individual times     ....       9.429 sec  ( 98.5%)

Fock matrix formation       ....       9.273 sec  ( 96.9%)
  XC integration            ....       2.581 sec  ( 27.8% of F)
    Basis function eval.    ....       0.897 sec  ( 34.7% of XC)
    Density eval.           ....       0.443 sec  ( 17.2% of XC)
    XC-Functional eval.     ....       0.326 sec  ( 12.6% of XC)
    XC-Potential eval.      ....       0.812 sec  ( 31.5% of XC)
Diagonalization             ....       0.025 sec  (  0.3%)
Density matrix formation    ....       0.001 sec  (  0.0%)
Population analysis         ....       0.004 sec  (  0.0%)
Initial guess               ....       0.002 sec  (  0.0%)
Orbital Transformation      ....       0.000 sec  (  0.0%)
Orbital Orthonormalization  ....       0.000 sec  (  0.0%)
DIIS solution               ....       0.010 sec  (  0.1%)
Grid generation             ....       0.114 sec  (  1.2%)

Maximum memory used throughout the entire SCF-calculation: 237.3 MB
------------------------------------------------------------------------------
                        ORCA TD-DFT/TDA CALCULATION
------------------------------------------------------------------------------

Input orbitals are from        ... orca.gbw
CI-vector output               ... orca.cis
Tamm-Dancoff approximation     ... operative
CIS-Integral strategy          ... AO-integrals
Integral handling              ... AO integral Direct
Max. core memory used          ... 512 MB
Reference state                ... RHF
Generation of triplets         ... on
Follow IRoot                   ... off
Number of operators            ... 1
Orbital ranges used for CIS calculation:
 Operator 0:  Orbitals   6... 11  to  12... 98
XAS localization array:
 Operator 0:  Orbitals  -1... -1

-------------------
XC-INTEGRATION GRID
-------------------

General Integration Accuracy     IntAcc      ... 3.467
Radial Grid Type                 RadialGrid  ... OptM3 with GC (2021)
Angular Grid (max. ang.)         AngularGrid ... 1 (Lebedev-50)
Angular grid pruning method      GridPruning ... 4 (adaptive)
Weight generation scheme         WeightScheme... Becke
Basis function cutoff            BFCut       ... 1.0000e-10
Integration weight cutoff        WCut        ... 1.0000e-14
Angular grids for H and He will be reduced by one unit
Partially contracted basis set               ... off
Rotationally invariant grid construction     ... off

Total number of grid points                  ...     2892
Total number of batches                      ...       47
Average number of points per batch           ...       61
Average number of grid points per atom       ...      723

---------------
TD-DFT XC SETUP
---------------

DFT calculation                         ... on
Name of the grid file                   ... orca.grid_cis.tmp
Exchange functional (TD-DFT)            ... PBE
   PBE kappa parameter  XKappa (TD-DFT) ...  0.804000
   PBE mue parameter   XMuePBE (TD-DFT) ...  0.219520
Correlation functional (TD-DFT)         ... PBE
   PBE beta parameter CBetaPBE (TD-DFT) ...  0.066725
 LDA part of GGA corr.  LDAOpt (TD-DFT) ... PW91-LDA
Hybrid DFT                              ... on
   Exchange mixing (TD-DFT)             ...  0.250
   GGA exch. scaling (TD-DFT)           ...  0.750
   GGA corr. scaling (TD-DFT)           ...  1.000

Building densities             ... done
Calculating rho(r) on the grid ... done
Building xc-kernel on the grid ... done
                    *** TD-DFT CALCULATION INITIALIZED ***

------------------------
DAVIDSON-DIAGONALIZATION
------------------------

Dimension of the eigenvalue problem            ...    522
Number of roots to be determined               ...     10
Maximum size of the expansion space            ...    100
Maximum number of iterations                   ...    100
Convergence tolerance for the residual         ...    1.000e-06
Convergence tolerance for the energies         ...    1.000e-06
Orthogonality tolerance                        ...    1.000e-14
Level Shift                                    ...    0.000e+00
Constructing the preconditioner                ... o.k.
Building the initial guess                     ... o.k.
Number of trial vectors determined             ...    100


                       ****Iteration    0****

   Memory handling for direct AO based CIS:
   Memory per vector needed      ...     1 MB
   Memory needed                 ...     6 MB
   Memory available              ...   512 MB
   Number of vectors per batch   ...   512
   Number of batches             ...     1
   Time for densities:            0.002
   SHARK[1a]
   Time for J+K (Direct):         3.932
   Time for XC-Integration:       0.369
   Time for Sigma-Completion:     3.665
   Size of expansion space: 30
   Lowest Energy          :     0.084599651581
   Maximum Energy change  :     0.390409074435 (vector 9)
   Maximum residual norm  :     0.020931031083

                       ****Iteration    1****
   Time for densities:            0.001
   SHARK[1a]
   Time for J+K (Direct):         1.682
   Time for XC-Integration:       0.137
   Time for Sigma-Completion:     0.001
   Size of expansion space: 40
   Lowest Energy          :     0.083670523541
   Maximum Energy change  :     0.023587351939 (vector 3)
   Maximum residual norm  :     0.000158715667

                       ****Iteration    2****
   Time for densities:            0.001
   SHARK[1a]
   Time for J+K (Direct):         1.681
   Time for XC-Integration:       0.137
   Time for Sigma-Completion:     0.001
   Size of expansion space: 50
   Lowest Energy          :     0.083667748973
   Maximum Energy change  :     0.000157282169 (vector 3)
   Maximum residual norm  :     0.000001532212

                       ****Iteration    3****
   Time for densities:            0.001
   SHARK[1a]
   Time for J+K (Direct):         1.691
   Time for XC-Integration:       0.138
   Time for Sigma-Completion:     0.001
   Size of expansion space: 60
   Lowest Energy          :     0.083667745318
   Maximum Energy change  :     0.000001557763 (vector 3)
   Maximum residual norm  :     0.000000026932

      *** CONVERGENCE OF RESIDUAL NORM REACHED ***

Storing the converged CI vectors               ... orca.cis1

                 *** DAVIDSON DONE ***

Total time for solving the CIS problem:    13.642sec

------------------------------------
TD-DFT/TDA EXCITED STATES (SINGLETS)
------------------------------------

the weight of the individual excitations are printed if larger than 1.0e-02

STATE  1:  E=   0.083668 au      2.277 eV    18362.9 cm**-1 <S**2> =   0.000000
    11a ->  12a  :     0.998634 (c=  0.99931669)

STATE  2:  E=   0.251649 au      6.848 eV    55230.7 cm**-1 <S**2> =   0.000000
     9a ->  12a  :     0.974723 (c=  0.98728044)

STATE  3:  E=   0.252926 au      6.882 eV    55510.9 cm**-1 <S**2> =   0.000000
    11a ->  13a  :     0.990066 (c=  0.99502047)

STATE  4:  E=   0.255761 au      6.960 eV    56133.1 cm**-1 <S**2> =   0.000000
     9a ->  13a  :     0.012693 (c= -0.11266212)
     9a ->  15a  :     0.020155 (c= -0.14196926)
    10a ->  12a  :     0.843392 (c= -0.91836370)
    11a ->  14a  :     0.051290 (c= -0.22647355)
    11a ->  20a  :     0.023873 (c=  0.15450845)

STATE  5:  E=   0.303282 au      8.253 eV    66562.7 cm**-1 <S**2> =   0.000000
    11a ->  15a  :     0.989975 (c= -0.99497470)

STATE  6:  E=   0.308369 au      8.391 eV    67679.2 cm**-1 <S**2> =   0.000000
     9a ->  13a  :     0.010983 (c=  0.10479801)
    10a ->  12a  :     0.033948 (c=  0.18425090)
    11a ->  14a  :     0.934695 (c= -0.96679649)

STATE  7:  E=   0.308695 au      8.400 eV    67750.7 cm**-1 <S**2> =   0.000000
     8a ->  12a  :     0.995207 (c= -0.99760057)

STATE  8:  E=   0.337172 au      9.175 eV    74000.7 cm**-1 <S**2> =   0.000000
    10a ->  13a  :     0.991883 (c=  0.99593319)

STATE  9:  E=   0.381738 au     10.388 eV    83781.9 cm**-1 <S**2> =   0.000000
    10a ->  14a  :     0.993773 (c=  0.99688175)

STATE 10:  E=   0.387248 au     10.538 eV    84991.0 cm**-1 <S**2> =   0.000000
    11a ->  16a  :     0.975465 (c= -0.98765635)


                  ********************************
                  * Entering triplet calculation *
                  ********************************

------------------------
DAVIDSON-DIAGONALIZATION
------------------------

Dimension of the eigenvalue problem            ...    522
Number of roots to be determined               ...     10
Maximum size of the expansion space            ...    100
Maximum number of iterations                   ...    100
Convergence tolerance for the residual         ...    1.000e-06
Convergence tolerance for the energies         ...    1.000e-06
Orthogonality tolerance                        ...    1.000e-14
Level Shift                                    ...    0.000e+00
Constructing the preconditioner                ... o.k.
Building the initial guess                     ... o.k.
Number of trial vectors determined             ...    100


                       ****Iteration    0****
                <<< Triplet sigma vectors requested >>>

   Memory handling for direct AO based CIS:
   Memory per vector needed      ...     1 MB
   Memory needed                 ...     4 MB
   Memory available              ...   512 MB
   Number of vectors per batch   ...   512
   Number of batches             ...     1
   Time for densities:            0.002
   SHARK[2G] - ScalHFX=    0.250 ScalHFX_loc=    1.000 facx=    1.000
   Time for K (Direct):           2.866
   Time for XC-Integration:       0.372
   Time for Sigma-Completion:     0.003
   Size of expansion space: 30
   Lowest Energy          :     0.062782948454
   Maximum Energy change  :     0.374783988960 (vector 9)
   Maximum residual norm  :     0.003975142028

                       ****Iteration    1****
   Time for densities:            0.001
   SHARK[2G] - ScalHFX=    0.250 ScalHFX_loc=    1.000 facx=    1.000
   Time for K (Direct):           1.368
   Time for XC-Integration:       0.137
   Time for Sigma-Completion:     0.001
   Size of expansion space: 40
   Lowest Energy          :     0.060956011368
   Maximum Energy change  :     0.004732550171 (vector 1)
   Maximum residual norm  :     0.000043216778

                       ****Iteration    2****
   Time for densities:            0.001
   SHARK[2G] - ScalHFX=    0.250 ScalHFX_loc=    1.000 facx=    1.000
   Time for K (Direct):           1.372
   Time for XC-Integration:       0.137
   Time for Sigma-Completion:     0.001
   Size of expansion space: 50
   Lowest Energy          :     0.060951969127
   Maximum Energy change  :     0.000092240213 (vector 8)
   Maximum residual norm  :     0.000001937350

                       ****Iteration    3****
   Time for densities:            0.001
   SHARK[2G] - ScalHFX=    0.250 ScalHFX_loc=    1.000 facx=    1.000
   Time for K (Direct):           1.376
   Time for XC-Integration:       0.138
   Time for Sigma-Completion:     0.001
   Size of expansion space: 60
   Lowest Energy          :     0.060951962327
   Maximum Energy change  :     0.000002715823 (vector 8)
   Maximum residual norm  :     0.000000037629

      *** CONVERGENCE OF RESIDUAL NORM REACHED ***

Storing the converged CI vectors               ... orca.cis3

                 *** DAVIDSON DONE ***

------------------------------------
TD-DFT/TDA EXCITED STATES (TRIPLETS)
------------------------------------

the weight of the individual excitations are printed if larger than 1.0e-02

STATE  1:  E=   0.060952 au      1.659 eV    13377.4 cm**-1 <S**2> =   2.000000
    11a ->  12a  :     0.996308 (c= -0.99815252)

STATE  2:  E=   0.117071 au      3.186 eV    25694.1 cm**-1 <S**2> =   2.000000
    10a ->  12a  :     0.991907 (c=  0.99594508)

STATE  3:  E=   0.207820 au      5.655 eV    45611.3 cm**-1 <S**2> =   2.000000
     9a ->  12a  :     0.988612 (c= -0.99428955)

STATE  4:  E=   0.229884 au      6.255 eV    50453.6 cm**-1 <S**2> =   2.000000
    11a ->  13a  :     0.907011 (c=  0.95237135)
    11a ->  15a  :     0.060149 (c=  0.24525373)
    11a ->  16a  :     0.019296 (c= -0.13891034)

STATE  5:  E=   0.282885 au      7.698 eV    62086.0 cm**-1 <S**2> =   2.000000
     8a ->  12a  :     0.988949 (c= -0.99445935)

STATE  6:  E=   0.286247 au      7.789 eV    62824.0 cm**-1 <S**2> =   2.000000
    11a ->  13a  :     0.066859 (c=  0.25857201)
    11a ->  15a  :     0.908937 (c= -0.95338167)

STATE  7:  E=   0.286477 au      7.795 eV    62874.4 cm**-1 <S**2> =   2.000000
    11a ->  14a  :     0.964930 (c= -0.98230843)
    11a ->  19a  :     0.014081 (c=  0.11866348)

STATE  8:  E=   0.316556 au      8.614 eV    69476.0 cm**-1 <S**2> =   2.000000
    10a ->  13a  :     0.921420 (c=  0.95990613)
    10a ->  15a  :     0.048701 (c=  0.22068341)
    10a ->  16a  :     0.011582 (c= -0.10761813)

STATE  9:  E=   0.368281 au     10.021 eV    80828.2 cm**-1 <S**2> =   2.000000
     8a ->  13a  :     0.015802 (c= -0.12570712)
    11a ->  13a  :     0.014071 (c=  0.11862203)
    11a ->  15a  :     0.012618 (c=  0.11232980)
    11a ->  16a  :     0.928204 (c=  0.96343319)
    11a ->  18a  :     0.015987 (c=  0.12643929)

STATE 10:  E=   0.371793 au     10.117 eV    81599.2 cm**-1 <S**2> =   2.000000
     7a ->  12a  :     0.043233 (c= -0.20792647)
    10a ->  13a  :     0.055707 (c=  0.23602233)
    10a ->  15a  :     0.862199 (c= -0.92854681)
    10a ->  16a  :     0.011677 (c=  0.10805805)
    10a ->  18a  :     0.014649 (c=  0.12103191)

------------------------------
TD-DFT/TDA SPIN-ORBIT COUPLING
------------------------------

Calculating the spin-orbit integrals:             

Loading the effective charges         ... done
Entering the SOC calc. section        ... 
------------------------------------------------------------------------------
                         ORCA SPIN-ORBIT COUPLING CALCULATION
------------------------------------------------------------------------------

GBW file                                    ... orca.gbw
Input density                               ... orca.cisp0
Output integrals                            ... orca.cis
Operator type                               ... Mean-field/Effective potential
   One-Electron Terms                       ... 1
   Coulomb Contribution                     ... 4
   Exchange Contribution                    ... 3
   Correlation Contribution                 ... 0
   Maximum number of centers                ... 4
SHARK 1-electron  MaxCenter=4               ... done (  0.0 sec)
Evaluating Coulomb term analytically        ... 
SHARK 2-electron DoJ,X=1,1 MaxCenter=4      ... done (  7.9 sec)
Transforming the SOC integrals              ... done
Constructing the SOC matrix:                ... done
Diagonalizing the SOC matrix:               ... done

      --------------------------------------------------------------------------------
                      CALCULATED SOCME BETWEEN TRIPLETS AND SINGLETS                  
      --------------------------------------------------------------------------------
           Root                          <T|HSO|S>  (Re, Im) cm-1                     
         T      S             Z                     X                     Y           
      --------------------------------------------------------------------------------
         1      0    (   0.00 ,   32.98 )    (   0.00 , -127.22 )    (  -0.00 ,  134.59 )
         1      1    (   0.00 ,   -0.00 )    (   0.00 ,    0.01 )    (  -0.00 ,   -0.01 )
         1      2    (   0.00 ,   21.61 )    (   0.00 , -104.54 )    (  -0.00 , -104.07 )
         1      3    (   0.00 ,   36.08 )    (   0.00 ,    9.72 )    (  -0.00 ,   -2.21 )
         1      4    (   0.00 ,  -25.82 )    (   0.00 ,   97.65 )    (  -0.00 , -103.47 )
         1      5    (   0.00 ,  -22.88 )    (   0.00 ,   -5.35 )    (  -0.00 ,    0.62 )
         1      6    (   0.00 ,    5.02 )    (   0.00 ,  -19.55 )    (  -0.00 ,   20.64 )
         1      7    (   0.00 ,   -0.09 )    (   0.00 ,    0.31 )    (  -0.00 ,   -0.30 )
         1      8    (   0.00 ,    0.89 )    (   0.00 ,   -4.30 )    (  -0.00 ,   -4.26 )
         1      9    (   0.00 ,    0.00 )    (   0.00 ,    0.04 )    (  -0.00 ,    0.01 )
         1     10    (   0.00 ,    1.00 )    (   0.00 ,    0.23 )    (  -0.00 ,   -0.03 )
         2      0    (   0.00 ,    0.01 )    (   0.00 ,   -0.02 )    (  -0.00 ,   -0.00 )
         2      1    (   0.00 ,   24.36 )    (   0.00 ,  -93.97 )    (  -0.00 ,   99.43 )
         2      2    (   0.00 ,  106.16 )    (   0.00 ,   24.65 )    (  -0.00 ,   -2.74 )
         2      3    (   0.00 ,   -0.27 )    (   0.00 ,    1.17 )    (  -0.00 ,    1.18 )
         2      4    (   0.00 ,    0.02 )    (   0.00 ,   -0.00 )    (  -0.00 ,   -0.03 )
         2      5    (   0.00 ,    0.12 )    (   0.00 ,   -0.59 )    (  -0.00 ,   -0.56 )
         2      6    (   0.00 ,   -0.13 )    (   0.00 ,    0.47 )    (  -0.00 ,   -0.48 )
         2      7    (   0.00 ,   -7.55 )    (   0.00 ,   29.03 )    (  -0.00 ,  -30.72 )
         2      8    (   0.00 ,  -30.15 )    (   0.00 ,   -7.01 )    (  -0.00 ,    0.78 )
         2      9    (   0.00 ,   -0.95 )    (   0.00 ,    3.90 )    (  -0.00 ,   -4.11 )
         2     10    (   0.00 ,    0.03 )    (   0.00 ,   -0.17 )    (  -0.00 ,   -0.12 )
         3      0    (   0.00 ,  148.07 )    (   0.00 ,   34.38 )    (  -0.00 ,   -3.77 )
         3      1    (   0.00 ,  -21.66 )    (   0.00 ,  104.78 )    (  -0.00 ,  104.34 )
         3      2    (   0.00 ,    0.03 )    (   0.00 ,    0.00 )    (  -0.00 ,   -0.00 )
         3      3    (   0.00 ,   -0.60 )    (   0.00 ,   -4.01 )    (  -0.00 ,    3.88 )
         3      4    (   0.00 , -125.82 )    (   0.00 ,  -29.16 )    (  -0.00 ,    3.17 )
         3      5    (   0.00 ,   -0.70 )    (   0.00 ,    2.96 )    (  -0.00 ,   -3.09 )
         3      6    (   0.00 ,   31.96 )    (   0.00 ,    7.04 )    (  -0.00 ,   -1.18 )
         3      7    (   0.00 ,    4.28 )    (   0.00 ,  -23.21 )    (  -0.00 ,  -22.99 )
         3      8    (   0.00 ,    0.01 )    (   0.00 ,    0.01 )    (  -0.00 ,    0.02 )
         3      9    (   0.00 ,    0.07 )    (   0.00 ,   -0.42 )    (  -0.00 ,   -0.40 )
         3     10    (   0.00 ,    0.43 )    (   0.00 ,   -0.78 )    (  -0.00 ,    0.89 )
         4      0    (   0.00 ,   13.98 )    (   0.00 ,  -67.60 )    (  -0.00 ,  -67.30 )
         4      1    (   0.00 ,   46.06 )    (   0.00 ,   10.73 )    (  -0.00 ,   -1.20 )
         4      2    (   0.00 ,    1.01 )    (   0.00 ,   -4.01 )    (  -0.00 ,    4.22 )
         4      3    (   0.00 ,    0.03 )    (   0.00 ,   -0.14 )    (  -0.00 ,   -0.15 )
         4      4    (   0.00 ,    2.71 )    (   0.00 ,  -13.20 )    (  -0.00 ,  -13.19 )
         4      5    (   0.00 ,   -0.01 )    (   0.00 ,    0.05 )    (  -0.00 ,   -0.00 )
         4      6    (   0.00 ,   -2.50 )    (   0.00 ,   12.05 )    (  -0.00 ,   11.89 )
         4      7    (   0.00 ,   -0.64 )    (   0.00 ,   -0.31 )    (  -0.00 ,   -0.21 )
         4      8    (   0.00 ,  -23.40 )    (   0.00 ,   90.34 )    (  -0.00 ,  -95.55 )
         4      9    (   0.00 ,   -2.28 )    (   0.00 ,   -0.64 )    (  -0.00 ,    0.16 )
         4     10    (   0.00 ,   -0.04 )    (   0.00 ,    0.30 )    (  -0.00 ,    0.33 )
         5      0    (   0.00 ,    7.22 )    (   0.00 ,  -27.62 )    (  -0.00 ,   29.33 )
         5      1    (   0.00 ,   -0.03 )    (   0.00 ,   -0.00 )    (  -0.00 ,   -0.00 )
         5      2    (   0.00 ,    4.80 )    (   0.00 ,  -23.27 )    (  -0.00 ,  -23.16 )
         5      3    (   0.00 ,    1.39 )    (   0.00 ,    0.83 )    (  -0.00 ,   -0.52 )
         5      4    (   0.00 ,   -8.49 )    (   0.00 ,   32.83 )    (  -0.00 ,  -34.71 )
         5      5    (   0.00 ,   -0.53 )    (   0.00 ,   -0.17 )    (  -0.00 ,    0.06 )
         5      6    (   0.00 ,    0.39 )    (   0.00 ,   -1.58 )    (  -0.00 ,    1.66 )
         5      7    (   0.00 ,   -0.00 )    (   0.00 ,    0.04 )    (  -0.00 ,   -0.03 )
         5      8    (   0.00 ,    0.18 )    (   0.00 ,   -0.80 )    (  -0.00 ,   -0.82 )
         5      9    (   0.00 ,    0.04 )    (   0.00 ,   -0.13 )    (  -0.00 ,    0.15 )
         5     10    (   0.00 ,    1.03 )    (   0.00 ,    0.25 )    (  -0.00 ,   -0.04 )
         6      0    (   0.00 ,   -7.20 )    (   0.00 ,   34.62 )    (  -0.00 ,   34.41 )
         6      1    (   0.00 ,  -18.13 )    (   0.00 ,   -4.10 )    (  -0.00 ,    0.34 )
         6      2    (   0.00 ,   -0.52 )    (   0.00 ,    1.20 )    (  -0.00 ,   -1.27 )
         6      3    (   0.00 ,   -0.08 )    (   0.00 ,    0.36 )    (  -0.00 ,    0.43 )
         6      4    (   0.00 ,   -2.19 )    (   0.00 ,   10.56 )    (  -0.00 ,   10.60 )
         6      5    (   0.00 ,    0.04 )    (   0.00 ,   -0.21 )    (  -0.00 ,   -0.23 )
         6      6    (   0.00 ,    0.33 )    (   0.00 ,   -1.40 )    (  -0.00 ,   -1.44 )
         6      7    (   0.00 ,    1.88 )    (   0.00 ,    1.11 )    (  -0.00 ,   -0.68 )
         6      8    (   0.00 ,   -5.06 )    (   0.00 ,   21.20 )    (  -0.00 ,  -22.34 )
         6      9    (   0.00 ,    2.55 )    (   0.00 ,   -8.52 )    (  -0.00 ,    9.11 )
         6     10    (   0.00 ,    0.06 )    (   0.00 ,   -0.33 )    (  -0.00 ,   -0.19 )
         7      0    (   0.00 ,    0.63 )    (   0.00 ,   -3.29 )    (  -0.00 ,   -3.34 )
         7      1    (   0.00 ,    1.37 )    (   0.00 ,    1.80 )    (  -0.00 ,   -1.53 )
         7      2    (   0.00 ,   -2.07 )    (   0.00 ,   -0.58 )    (  -0.00 ,    0.23 )
         7      3    (   0.00 ,   -0.56 )    (   0.00 ,    2.71 )    (  -0.00 ,    2.80 )
         7      4    (   0.00 ,    0.20 )    (   0.00 ,   -1.09 )    (  -0.00 ,   -1.01 )
         7      5    (   0.00 ,    0.39 )    (   0.00 ,   -1.90 )    (  -0.00 ,   -1.88 )
         7      6    (   0.00 ,   -0.04 )    (   0.00 ,    0.25 )    (  -0.00 ,    0.04 )
         7      7    (   0.00 ,   -1.77 )    (   0.00 ,    6.00 )    (  -0.00 ,   -6.41 )
         7      8    (   0.00 ,    4.89 )    (   0.00 ,   -1.06 )    (  -0.00 ,    2.09 )
         7      9    (   0.00 ,   23.74 )    (   0.00 ,  -91.72 )    (  -0.00 ,   97.05 )
         7     10    (   0.00 ,    0.44 )    (   0.00 ,   -2.20 )    (  -0.00 ,   -2.70 )
         8      0    (   0.00 ,  -79.67 )    (   0.00 ,  -18.52 )    (  -0.00 ,    2.06 )
         8      1    (   0.00 ,    0.57 )    (   0.00 ,   -2.74 )    (  -0.00 ,   -2.71 )
         8      2    (   0.00 ,    0.03 )    (   0.00 ,   -0.04 )    (  -0.00 ,    0.01 )
         8      3    (   0.00 ,   23.20 )    (   0.00 ,  -92.27 )    (  -0.00 ,   97.43 )
         8      4    (   0.00 ,  -55.39 )    (   0.00 ,  -11.64 )    (  -0.00 ,    0.19 )
         8      5    (   0.00 ,   -4.23 )    (   0.00 ,   16.46 )    (  -0.00 ,  -17.39 )
         8      6    (   0.00 ,   20.99 )    (   0.00 ,    4.91 )    (  -0.00 ,   -0.55 )
         8      7    (   0.00 ,   -0.50 )    (   0.00 ,    0.76 )    (  -0.00 ,    0.83 )
         8      8    (   0.00 ,    0.00 )    (   0.00 ,   -0.02 )    (  -0.00 ,    0.01 )
         8      9    (   0.00 ,   -0.29 )    (   0.00 ,    1.35 )    (  -0.00 ,    1.29 )
         8     10    (   0.00 ,    1.62 )    (   0.00 ,   -5.00 )    (  -0.00 ,    5.37 )
         9      0    (   0.00 ,   -3.12 )    (   0.00 ,   15.75 )    (  -0.00 ,   15.69 )
         9      1    (   0.00 ,   -6.20 )    (   0.00 ,   -1.42 )    (  -0.00 ,    0.17 )
         9      2    (   0.00 ,   -0.47 )    (   0.00 ,    1.19 )    (  -0.00 ,   -1.32 )
         9      3    (   0.00 ,   -0.05 )    (   0.00 ,    0.27 )    (  -0.00 ,    0.40 )
         9      4    (   0.00 ,   -0.99 )    (   0.00 ,    5.06 )    (  -0.00 ,    5.09 )
         9      5    (   0.00 ,    0.07 )    (   0.00 ,   -0.32 )    (  -0.00 ,    0.13 )
         9      6    (   0.00 ,   -0.73 )    (   0.00 ,    3.95 )    (  -0.00 ,    4.20 )
         9      7    (   0.00 ,    5.91 )    (   0.00 ,    1.30 )    (  -0.00 ,   -0.23 )
         9      8    (   0.00 ,   -0.69 )    (   0.00 ,    3.84 )    (  -0.00 ,   -3.98 )
         9      9    (   0.00 ,   -2.94 )    (   0.00 ,   -0.77 )    (  -0.00 ,    0.13 )
         9     10    (   0.00 ,   -0.01 )    (   0.00 ,    0.01 )    (  -0.00 ,   -0.03 )
        10      0    (   0.00 ,   56.76 )    (   0.00 ,   13.15 )    (  -0.00 ,   -1.48 )
        10      1    (   0.00 ,   -0.51 )    (   0.00 ,    2.49 )    (  -0.00 ,    2.49 )
        10      2    (   0.00 ,   -0.03 )    (   0.00 ,   -0.00 )    (  -0.00 ,    0.02 )
        10      3    (   0.00 ,    4.65 )    (   0.00 ,  -16.42 )    (  -0.00 ,   17.53 )
        10      4    (   0.00 ,   29.74 )    (   0.00 ,    7.13 )    (  -0.00 ,   -1.00 )
        10      5    (   0.00 ,   23.25 )    (   0.00 ,  -89.75 )    (  -0.00 ,   94.92 )
        10      6    (   0.00 ,   -9.31 )    (   0.00 ,   -1.96 )    (  -0.00 ,   -0.01 )
        10      7    (   0.00 ,    0.44 )    (   0.00 ,   -1.45 )    (  -0.00 ,   -1.39 )
        10      8    (   0.00 ,    0.02 )    (   0.00 ,    0.02 )    (  -0.00 ,   -0.03 )
        10      9    (   0.00 ,    0.81 )    (   0.00 ,   -3.91 )    (  -0.00 ,   -3.96 )
        10     10    (   0.00 ,   -2.71 )    (   0.00 ,   10.46 )    (  -0.00 ,  -11.08 )

SOC stabilization of the ground state:  -3.5343 cm-1
Eigenvalues of the SOC matrix:

   State:        cm-1         eV
     0:          0.00         0.0000
     1:      13378.65         1.6587
     2:      13378.78         1.6588
     3:      13382.31         1.6592
     4:      18362.97         2.2767
     5:      25698.49         3.1862
     6:      25698.72         3.1862
     7:      25699.55         3.1863
     8:      45614.32         5.6555
     9:      45616.03         5.6557
    10:      45616.17         5.6557
    11:      50456.25         6.2558
    12:      50456.35         6.2558
    13:      50456.47         6.2558
    14:      55234.99         6.8483
    15:      55513.10         6.8827
    16:      56138.06         6.9602
    17:      62089.54         7.6981
    18:      62089.62         7.6981
    19:      62090.03         7.6982
    20:      62825.85         7.7894
    21:      62826.67         7.7895
    22:      62826.72         7.7895
    23:      62877.76         7.7958
    24:      62878.04         7.7959
    25:      62878.77         7.7960
    26:      66564.91         8.2530
    27:      67682.54         8.3916
    28:      67754.35         8.4005
    29:      69480.59         8.6145
    30:      69481.12         8.6146
    31:      69481.12         8.6146
    32:      74005.07         9.1755
    33:      80831.76        10.0219
    34:      80831.77        10.0219
    35:      80831.79        10.0219
    36:      81603.69        10.1176
    37:      81603.78        10.1176
    38:      81603.85        10.1176
    39:      83786.31        10.3882
    40:      84994.66        10.5380

The threshold for printing is 0.0100
Eigenvectors of the SOC matrix:

             E(cm-1)  Weight      Real         Imag     : Root  Spin  Ms
 STATE  0:      0.00
                      0.99979      0.11171     -0.99363 : 0     0     0
 STATE  1:  13378.65
                      0.94813     -0.66809     -0.70837 : 1     1     0
                      0.02586     -0.09686     -0.12838 : 1     1    -1
                      0.02586      0.12249      0.10420 : 1     1     1
 STATE  2:  13378.78
                      0.02100      0.11351      0.09007 : 1     1     0
                      0.48943     -0.69517      0.07857 : 1     1    -1
                      0.48943      0.08148      0.69483 : 1     1     1
 STATE  3:  13382.31
                      0.03073      0.17432      0.01838 : 1     1     0
                      0.48452     -0.42247     -0.55321 : 1     1    -1
                      0.48452      0.52854     -0.45295 : 1     1     1
 STATE  4:  18362.97
                      0.99961      0.70825      0.70569 : 1     0     0
 STATE  5:  25698.49
                      0.02097     -0.09945     -0.10526 : 2     1     0
                      0.48944      0.69927      0.02137 : 2     1    -1
                      0.48944      0.01836     -0.69936 : 2     1     1
 STATE  6:  25698.72
                      0.94813      0.62269     -0.74859 : 2     1     0
                      0.02586      0.11582     -0.11156 : 2     1    -1
                      0.02586     -0.08861      0.13420 : 2     1     1
 STATE  7:  25699.55
                      0.03075     -0.12425      0.12372 : 2     1     0
                      0.48443      0.69569      0.02112 : 2     1    -1
                      0.48443      0.01816      0.69578 : 2     1     1
 STATE  8:  45614.32
                      0.94810     -0.94869     -0.21928 : 3     1     0
                      0.02585     -0.15175     -0.05316 : 3     1    -1
                      0.02585      0.15968      0.01883 : 3     1     1
 STATE  9:  45616.03
                      0.03072     -0.13320     -0.11394 : 3     1     0
                      0.48461      0.03452      0.69528 : 3     1    -1
                      0.48461     -0.69223      0.07364 : 3     1     1
 STATE 10:  45616.17
                      0.02099     -0.09293      0.11115 : 3     1     0
                      0.48947     -0.06073     -0.69698 : 3     1    -1
                      0.48947     -0.69672      0.06368 : 3     1     1
 STATE 11:  50456.25
                      0.94775      0.68245     -0.69427 : 4     1     0
                      0.02610      0.12535     -0.10191 : 4     1    -1
                      0.02610     -0.09975      0.12708 : 4     1     1
 STATE 12:  50456.35
                      0.02107     -0.14445     -0.01412 : 4     1     0
                      0.48943      0.54101     -0.44355 : 4     1    -1
                      0.48943     -0.44487     -0.53993 : 4     1     1
 STATE 13:  50456.47
                      0.03113     -0.05424      0.16790 : 4     1     0
                      0.48442      0.62809     -0.29986 : 4     1    -1
                      0.48442      0.33395      0.61065 : 4     1     1
 STATE 14:  55234.99
                      0.99995      0.99927     -0.03751 : 2     0     0
 STATE 15:  55513.10
                      0.99990     -0.72975      0.68365 : 3     0     0
 STATE 16:  56138.06
                      0.99973     -0.13920      0.99013 : 4     0     0
 STATE 17:  62089.54
                      0.94871      0.60291      0.76499 : 5     1     0
                      0.02556      0.08455      0.13568 : 5     1    -1
                      0.02556     -0.11216     -0.11392 : 5     1     1
 STATE 18:  62089.62
                      0.02071     -0.14140     -0.02681 : 5     1     0
                      0.48954      0.57903     -0.39276 : 5     1    -1
                      0.48954     -0.39504     -0.57748 : 5     1     1
 STATE 19:  62090.03
                      0.03040      0.17354      0.01694 : 5     1     0
                      0.48475     -0.42707     -0.54988 : 5     1    -1
                      0.48475      0.52536     -0.45689 : 5     1     1
 STATE 20:  62825.85
                      0.92364     -0.68094      0.67821 : 6     1     0
                      0.03101     -0.14558      0.09907 : 6     1    -1
                      0.03101      0.09965     -0.14518 : 6     1     1
 STATE 21:  62826.67
                      0.01900     -0.13698     -0.01521 : 6     1     0
                      0.49045      0.53233     -0.45506 : 6     1    -1
                      0.49045     -0.41951     -0.56077 : 6     1     1
 STATE 22:  62826.72
                      0.04349     -0.18080      0.10394 : 6     1     0
                      0.01310     -0.09923      0.05705 : 7     1     0
                      0.47128      0.66334      0.17681 : 6     1    -1
                      0.47128     -0.18100      0.66221 : 6     1     1
 STATE 23:  62877.76
                      0.01354      0.08237     -0.08217 : 6     1     0
                      0.02503      0.11202     -0.11174 : 7     1     0
                      0.48033     -0.69291     -0.01430 : 7     1    -1
                      0.48033     -0.01258     -0.69295 : 7     1     1
 STATE 24:  62878.04
                      0.02076     -0.14274     -0.01968 : 7     1     0
                      0.48953      0.55598     -0.42475 : 7     1    -1
                      0.48953     -0.42030     -0.55936 : 7     1     1
 STATE 25:  62878.77
                      0.94023     -0.68551      0.68578 : 7     1     0
                      0.02281     -0.11292      0.10031 : 7     1    -1
                      0.02281      0.10027     -0.11296 : 7     1     1
 STATE 26:  66564.91
                      0.99985     -0.72657      0.68699 : 5     0     0
 STATE 27:  67682.54
                      0.99985     -0.00426     -0.99992 : 6     0     0
 STATE 28:  67754.35
                      0.99999     -0.69148     -0.72239 : 7     0     0
 STATE 29:  69480.59
                      0.02097      0.02451     -0.14272 : 8     1     0
                      0.48949      0.40279      0.57205 : 8     1    -1
                      0.48949      0.57059     -0.40486 : 8     1     1
 STATE 30:  69481.12
                      0.05763      0.17254      0.16691 : 8     1     0
                      0.47110      0.01471     -0.68621 : 8     1    -1
                      0.47110      0.68535     -0.03745 : 8     1     1
 STATE 31:  69481.12
                      0.92119     -0.68172     -0.67561 : 8     1     0
                      0.03930     -0.09979     -0.17129 : 8     1    -1
                      0.03930      0.17218      0.09824 : 8     1     1
 STATE 32:  74005.07
                      0.99996     -0.72186      0.69201 : 8     0     0
 STATE 33:  80831.76
                      0.94800     -0.69149      0.68545 : 9     1     0
                      0.02598     -0.12693      0.09933 : 9     1    -1
                      0.02598      0.10044     -0.12606 : 9     1     1
 STATE 34:  80831.77
                      0.02114     -0.14412     -0.01935 : 9     1     0
                      0.48941      0.56046     -0.41868 : 9     1    -1
                      0.48941     -0.43016     -0.55170 : 9     1     1
 STATE 35:  80831.79
                      0.03082      0.13175     -0.11601 : 9     1     0
                      0.48459     -0.69265     -0.06949 : 9     1    -1
                      0.48459      0.01874     -0.69587 : 9     1     1
 STATE 36:  81603.69
                      0.02081     -0.10204      0.10198 : 10     1     0
                      0.48955      0.00040     -0.69968 : 10     1    -1
                      0.48955     -0.69968      0.00000 : 10     1     1
 STATE 37:  81603.78
                      0.94922     -0.96912     -0.10013 : 10     1     0
                      0.02534     -0.15584     -0.03255 : 10     1    -1
                      0.02534      0.15920      0.00000 : 10     1     1
 STATE 38:  81603.85
                      0.02988      0.11902      0.12535 : 10     1     0
                      0.48501      0.03602     -0.69550 : 10     1    -1
                      0.48501      0.69643      0.00000 : 10     1     1
 STATE 39:  83786.31
                      0.99995      0.71150      0.70265 : 9     0     0
 STATE 40:  84994.66
                      0.99998     -0.72703      0.68659 : 10     0     0

-----------------------------
TD-DFT/TDA-EXCITATION SPECTRA
-----------------------------

Center of mass = (  8.9326,  8.3562,  7.1596)
Calculating the Dipole integrals                  ... done
Transforming integrals                            ... done
Calculating the Linear Momentum integrals         ... done
Transforming integrals                            ... done
Calculating angular momentum integrals            ... done
Transforming integrals                            ... done

-----------------------------------------------------------------------------
         ABSORPTION SPECTRUM VIA TRANSITION ELECTRIC DIPOLE MOMENTS
-----------------------------------------------------------------------------
State   Energy    Wavelength  fosc         T2        TX        TY        TZ  
        (cm-1)      (nm)                 (au**2)    (au)      (au)      (au) 
-----------------------------------------------------------------------------
   1   18362.9    544.6   0.000000001   0.00000  -0.00011   0.00010   0.00005
   2   55230.7    181.1   0.009697638   0.05780   0.16848  -0.16795  -0.03478
   3   55510.9    180.1   0.001277118   0.00757   0.02804   0.01120   0.08162
   4   56133.1    178.1   0.217450058   1.27531   0.76347   0.80777  -0.19982
   5   66562.7    150.2   0.012610382   0.06237  -0.05590  -0.00583  -0.24333
   6   67679.2    147.8   0.283561402   1.37933  -0.79401  -0.84047   0.20610
   7   67750.7    147.6   0.000069995   0.00034   0.01268   0.01295  -0.00339
   8   74000.7    135.1   0.024937437   0.11094   0.23428  -0.23175  -0.04847
   9   83781.9    119.4   0.000001287   0.00001   0.00032  -0.00127  -0.00183
  10   84991.0    117.7   0.093510830   0.36221  -0.13610  -0.01439  -0.58607
  11   13377.4    747.5   spin forbidden (mult=3)
  12   25694.1    389.2   spin forbidden (mult=3)
  13   45611.3    219.2   spin forbidden (mult=3)
  14   50453.6    198.2   spin forbidden (mult=3)
  15   62086.0    161.1   spin forbidden (mult=3)
  16   62824.0    159.2   spin forbidden (mult=3)
  17   62874.4    159.0   spin forbidden (mult=3)
  18   69476.0    143.9   spin forbidden (mult=3)
  19   80828.2    123.7   spin forbidden (mult=3)
  20   81599.2    122.6   spin forbidden (mult=3)

-----------------------------------------------------------------------------
         ABSORPTION SPECTRUM VIA TRANSITION VELOCITY DIPOLE MOMENTS
-----------------------------------------------------------------------------
State   Energy    Wavelength   fosc        P2         PX        PY        PZ  
        (cm-1)      (nm)                 (au**2)     (au)      (au)      (au) 
-----------------------------------------------------------------------------
   1   18362.9    544.6   0.000000029   0.00000   0.00004  -0.00003  -0.00003
   2   55230.7    181.1   0.000802385   0.00030   0.01216  -0.01219  -0.00251
   3   55510.9    180.1   0.013011578   0.00494  -0.01552  -0.00134  -0.06851
   4   56133.1    178.1   0.000279614   0.00011   0.00718   0.00743  -0.00066
   5   66562.7    150.2   0.020099572   0.00914   0.02146   0.00227   0.09316
   6   67679.2    147.8   0.114594708   0.05301   0.15566   0.16476  -0.04040
   7   67750.7    147.6   0.000028483   0.00001  -0.00247  -0.00257   0.00070
   8   74000.7    135.1   0.018721790   0.00947  -0.06849   0.06767   0.01411
   9   83781.9    119.4   0.000000749   0.00000  -0.00009   0.00045   0.00046
  10   84991.0    117.7   0.031656618   0.01839   0.03060   0.00307   0.13207
  11   13377.4    747.5   spin forbidden (mult=3)
  12   25694.1    389.2   spin forbidden (mult=3)
  13   45611.3    219.2   spin forbidden (mult=3)
  14   50453.6    198.2   spin forbidden (mult=3)
  15   62086.0    161.1   spin forbidden (mult=3)
  16   62824.0    159.2   spin forbidden (mult=3)
  17   62874.4    159.0   spin forbidden (mult=3)
  18   69476.0    143.9   spin forbidden (mult=3)
  19   80828.2    123.7   spin forbidden (mult=3)
  20   81599.2    122.6   spin forbidden (mult=3)

-------------------------------------------------------------------
                             CD SPECTRUM
-------------------------------------------------------------------
State  Energy     Wavelength     R         MX        MY        MZ   
       (cm-1)       (nm)     (1e40*cgs)   (au)      (au)      (au)  
-------------------------------------------------------------------
   1   18362.9    544.6     -0.00392   0.37758   0.39948  -0.09789
   2   55230.7    181.1     -0.02700  -0.17865  -0.01949  -0.76964
   3   55510.9    180.1      0.00583  -0.33577   0.33439   0.06961
   4   56133.1    178.1     -0.00726   0.00385  -0.00391  -0.00100
   5   66562.7    150.2     -0.01448  -0.19439   0.19333   0.04015
   6   67679.2    147.8     -3.31037   0.00395   0.00435  -0.00114
   7   67750.7    147.6      3.31516   0.25791   0.27290  -0.06667
   8   74000.7    135.1     -0.01270  -0.00659  -0.00074  -0.02774
   9   83781.9    119.4      0.00215  -0.01316  -0.01209   0.00358
  10   84991.0    117.7      0.12666  -0.32855   0.32730   0.06780
  11   13377.4    747.5 spin forbidden
  12   25694.1    389.2 spin forbidden
  13   45611.3    219.2 spin forbidden
  14   50453.6    198.2 spin forbidden
  15   62086.0    161.1 spin forbidden
  16   62824.0    159.2 spin forbidden
  17   62874.4    159.0 spin forbidden
  18   69476.0    143.9 spin forbidden
  19   80828.2    123.7 spin forbidden
  20   81599.2    122.6 spin forbidden

-------------------------------------------------------------------
         CD SPECTRUM VIA TRANSITION VELOCITY DIPOLE MOMENTS        
-------------------------------------------------------------------
State  Energy     Wavelength     R         MX        MY        MZ   
       (cm-1)       (nm)     (1e40*cgs)   (au)      (au)      (au)  
-------------------------------------------------------------------
   1   18362.9    544.6     -0.04632   0.37758   0.39948  -0.09789
   2   55230.7    181.1      0.00217  -0.17865  -0.01949  -0.76964
   3   55510.9    180.1      0.00840  -0.33577   0.33439   0.06961
   4   56133.1    178.1      0.00130   0.00385  -0.00391  -0.00100
   5   66562.7    150.2     -0.01140  -0.19439   0.19333   0.04015
   6   67679.2    147.8     -2.10443   0.00395   0.00435  -0.00114
   7   67750.7    147.6      2.11469   0.25791   0.27290  -0.06667
   8   74000.7    135.1     -0.01324  -0.00659  -0.00074  -0.02774
   9   83781.9    119.4      0.00334  -0.01316  -0.01209   0.00358
  10   84991.0    117.7      0.11306  -0.32855   0.32730   0.06780
  11   13377.4    747.5 spin forbidden
  12   25694.1    389.2 spin forbidden
  13   45611.3    219.2 spin forbidden
  14   50453.6    198.2 spin forbidden
  15   62086.0    161.1 spin forbidden
  16   62824.0    159.2 spin forbidden
  17   62874.4    159.0 spin forbidden
  18   69476.0    143.9 spin forbidden
  19   80828.2    123.7 spin forbidden
  20   81599.2    122.6 spin forbidden

-------------------------------------------
SOC CORRECTED TD-DFT/TDA-EXCITATION SPECTRA
--------------------------------------------

---------------------------------------------------------------------------------
SPIN ORBIT CORRECTED ABSORPTION SPECTRUM VIA TRANSITION ELECTRIC DIPOLE MOMENTS
---------------------------------------------------------------------------------
  States    Energy  Wavelength   fosc         T2         TX        TY        TZ  
            (cm-1)    (nm)                  (au**2)     (au)      (au)      (au) 
---------------------------------------------------------------------------------
   0   1   13378.6    747.5   0.000000023   0.00000   0.00017   0.00002   0.00074
   0   2   13378.8    747.5   0.000000043   0.00000   0.00072   0.00071   0.00015
   0   3   13382.3    747.3   0.000016953   0.00042   0.01381   0.01461   0.00358
   0   4   18363.0    544.6   0.000000001   0.00000   0.00011   0.00010   0.00005
   0   5   25698.5    389.1   0.000000000   0.00000   0.00001   0.00000   0.00003
   0   6   25698.7    389.1   0.000000000   0.00000   0.00000   0.00000   0.00000
   0   7   25699.5    389.1   0.000000000   0.00000   0.00000   0.00000   0.00000
   0   8   45614.3    219.2   0.000047414   0.00034   0.01251   0.01323   0.00325
   0   9   45616.0    219.2   0.000001783   0.00001   0.00081   0.00009   0.00349
   0  10   45616.2    219.2   0.000000000   0.00000   0.00000   0.00000   0.00000
   0  11   50456.3    198.2   0.000000000   0.00000   0.00000   0.00000   0.00000
   0  12   50456.3    198.2   0.000001883   0.00001   0.00237   0.00251   0.00061
   0  13   50456.5    198.2   0.000000398   0.00000   0.00113   0.00112   0.00023
   0  14   55235.0    181.0   0.009696412   0.05779   0.16847   0.16793   0.03478
   0  15   55513.1    180.1   0.001276461   0.00757   0.02799   0.01115   0.08162
   0  16   56138.1    178.1   0.217319270   1.27443   0.76321   0.80749   0.19975
   0  17   62089.5    161.1   0.000000186   0.00000   0.00023   0.00003   0.00097
   0  18   62089.6    161.1   0.000000254   0.00000   0.00081   0.00081   0.00017
   0  19   62090.0    161.1   0.000002825   0.00001   0.00262   0.00277   0.00067
   0  20   62825.8    159.2   0.000000000   0.00000   0.00003   0.00003   0.00000
   0  21   62826.7    159.2   0.000000175   0.00000   0.00058   0.00071   0.00027
   0  22   62826.7    159.2   0.000000370   0.00000   0.00099   0.00095   0.00021
   0  23   62877.8    159.0   0.000000004   0.00000   0.00011   0.00009   0.00002
[...]
   0  27   67682.5    147.7   0.283438279   1.37866 ( -0.78846,  0.09205) ( -0.83460,  0.09743) (  0.20466, -0.02389)
   0  28   67754.4    147.6   0.000069378   0.00034 (  0.00809, -0.00970) (  0.00826, -0.00990) ( -0.00216,  0.00259)
   0  29   69480.6    143.9   0.000000000   0.00000 ( -0.00000,  0.00000) ( -0.00000,  0.00000) (  0.00000, -0.00000)
   0  30   69481.1    143.9   0.000002744   0.00001 ( -0.00007, -0.00006) ( -0.00065, -0.00050) (  0.00278,  0.00214)
   0  31   69481.1    143.9   0.000075053   0.00036 (  0.01004,  0.00794) (  0.01059,  0.00837) ( -0.00244, -0.00193)
   0  32   74005.1    135.1   0.024932674   0.11091 ( -0.17998, -0.14993) (  0.17804,  0.14831) (  0.03723,  0.03102)
   0  33   80831.8    123.7   0.000000000   0.00000 ( -0.00000,  0.00001) (  0.00000, -0.00000) (  0.00000, -0.00000)
   0  34   80831.8    123.7   0.000000704   0.00000 ( -0.00117, -0.00003) ( -0.00118, -0.00003) (  0.00030,  0.00001)
   0  35   80831.8    123.7   0.000005719   0.00002 (  0.00226, -0.00249) ( -0.00228,  0.00251) ( -0.00047,  0.00051)
   0  36   81603.7    122.5   0.000000000   0.00000 (  0.00000, -0.00000) ( -0.00000,  0.00000) ( -0.00001,  0.00001)
   0  37   81603.8    122.5   0.000000320   0.00000 ( -0.00077,  0.00001) ( -0.00081,  0.00001) (  0.00021, -0.00000)
   0  38   81603.8    122.5   0.000001613   0.00001 ( -0.00044, -0.00037) ( -0.00003, -0.00002) ( -0.00190, -0.00160)
   0  39   83786.3    119.4   0.000001288   0.00001 ( -0.00020,  0.00025) (  0.00079, -0.00100) (  0.00113, -0.00144)
   0  40   84994.7    117.7   0.093493511   0.36213 (  0.10391,  0.08788) (  0.01099,  0.00929) (  0.44743,  0.37843)

---------------------------------------------------------------------------------------------------------------------
                    SOC CORRECTED ABSORPTION SPECTRUM VIA TRANSITION VELOCITY DIPOLE MOMENTS*  
---------------------------------------------------------------------------------------------------------------------
   State    Energy  Wavelength   fosc         P2              PX                    PY                    PZ  
            (cm-1)    (nm)                  (au**2)          (au)                  (au)                  (au) 
---------------------------------------------------------------------------------------------------------------------
   0   1   13378.6    747.5   0.000000818   0.00000 (  0.00004, -0.00005) (  0.00000, -0.00001) (  0.00017, -0.00020)
   0   2   13378.8    747.5   0.000000042   0.00000 (  0.00002, -0.00004) ( -0.00002,  0.00004) ( -0.00000,  0.00001)
   0   3   13382.3    747.3   0.000000025   0.00000 (  0.00000,  0.00003) (  0.00000,  0.00003) ( -0.00000, -0.00001)
   0   4   18363.0    544.6   0.000000029   0.00000 ( -0.00003, -0.00003) (  0.00002,  0.00002) (  0.00002,  0.00002)
   0   5   25698.5    389.1   0.000000005   0.00000 ( -0.00000,  0.00001) ( -0.00000,  0.00000) ( -0.00002,  0.00002)
   0   6   25698.7    389.1   0.000000034   0.00000 ( -0.00005, -0.00003) (  0.00005,  0.00003) (  0.00001,  0.00001)
   0   7   25699.5    389.1   0.000000000   0.00000 ( -0.00000, -0.00000) (  0.00000,  0.00000) (  0.00000,  0.00000)
   0   8   45614.3    219.2   0.000000062   0.00000 ( -0.00001,  0.00009) ( -0.00001,  0.00010) (  0.00000, -0.00003)
   0   9   45616.0    219.2   0.000000834   0.00000 ( -0.00006,  0.00010) ( -0.00001,  0.00001) ( -0.00028,  0.00041)
   0  10   45616.2    219.2   0.000000000   0.00000 (  0.00000,  0.00000) ( -0.00000, -0.00000) ( -0.00000, -0.00000)
   0  11   50456.3    198.2   0.000000000   0.00000 (  0.00000,  0.00000) ( -0.00000, -0.00000) ( -0.00000, -0.00000)
   0  12   50456.3    198.2   0.000000014   0.00000 ( -0.00000, -0.00005) ( -0.00000, -0.00005) (  0.00000,  0.00001)
   0  13   50456.5    198.2   0.000001450   0.00000 (  0.00049,  0.00010) ( -0.00048, -0.00010) ( -0.00010, -0.00002)
   0  14   55235.0    181.0   0.000801967   0.00030 ( -0.01203,  0.00181) (  0.01205, -0.00182) (  0.00248, -0.00037)
   0  15   55513.1    180.1   0.013006748   0.00493 ( -0.01007,  0.01181) ( -0.00087,  0.00102) ( -0.04444,  0.05212)
   0  16   56138.1    178.1   0.000278531   0.00011 (  0.00020, -0.00717) (  0.00021, -0.00741) ( -0.00002,  0.00066)
   0  17   62089.5    161.1   0.000000014   0.00000 (  0.00001, -0.00001) (  0.00000, -0.00000) (  0.00005, -0.00005)
   0  18   62089.6    161.1   0.000000020   0.00000 (  0.00000, -0.00006) ( -0.00000,  0.00006) ( -0.00000,  0.00001)
   0  19   62090.0    161.1   0.000022246   0.00001 ( -0.00003, -0.00208) ( -0.00003, -0.00220) (  0.00001,  0.00054)
   0  20   62825.8    159.2   0.000000000   0.00000 ( -0.00000, -0.00000) (  0.00001,  0.00000) (  0.00000,  0.00000)
   0  21   62826.7    159.2   0.000000318   0.00000 (  0.00000,  0.00024) (  0.00000,  0.00027) ( -0.00000, -0.00007)
   0  22   62826.7    159.2   0.000000162   0.00000 (  0.00011,  0.00015) ( -0.00010, -0.00014) ( -0.00002, -0.00003)
   0  23   62877.8    159.0   0.000000002   0.00000 (  0.00002,  0.00001) ( -0.00001, -0.00001) ( -0.00000, -0.00000)
   0  24   62878.0    159.0   0.000000050   0.00000 (  0.00000, -0.00006) (  0.00000, -0.00003) (  0.00000, -0.00013)
   0  25   62878.8    159.0   0.000000013   0.00000 ( -0.00004, -0.00003) (  0.00004,  0.00003) (  0.00001,  0.00001)
   0  26   66564.9    150.2   0.020091688   0.00914 (  0.01385, -0.01639) (  0.00147, -0.00174) (  0.06010, -0.07115)
   0  27   67682.5    147.7   0.114545292   0.05299 (  0.01805,  0.15458) (  0.01910,  0.16361) ( -0.00468, -0.04012)
   0  28   67754.4    147.6   0.000028233   0.00001 ( -0.00189, -0.00158) ( -0.00196, -0.00164) (  0.00054,  0.00045)
   0  29   69480.6    143.9   0.000000000   0.00000 (  0.00000,  0.00000) (  0.00000,  0.00000) ( -0.00000, -0.00000)
   0  30   69481.1    143.9   0.000005440   0.00000 (  0.00014, -0.00018) ( -0.00006,  0.00008) (  0.00097, -0.00126)
   0  31   69481.1    143.9   0.000017042   0.00001 (  0.00121, -0.00153) (  0.00126, -0.00160) ( -0.00025,  0.00031)
   0  32   74005.1    135.1   0.018716114   0.00947 ( -0.04383,  0.05262) (  0.04330, -0.05199) (  0.00903, -0.01084)
   0  33   80831.8    123.7   0.000000000   0.00000 (  0.00000,  0.00000) ( -0.00000, -0.00000) ( -0.00000, -0.00000)
   0  34   80831.8    123.7   0.000000151   0.00000 ( -0.00000,  0.00020) ( -0.00000,  0.00020) (  0.00000, -0.00005)
   0  35   80831.8    123.7   0.000003566   0.00000 ( -0.00073, -0.00066) (  0.00073,  0.00066) (  0.00015,  0.00014)
   0  36   81603.7    122.5   0.000000000   0.00000 ( -0.00000, -0.00000) (  0.00000,  0.00000) (  0.00000,  0.00000)
   0  37   81603.8    122.5   0.000000137   0.00000 (  0.00000,  0.00019) (  0.00000,  0.00020) ( -0.00000, -0.00005)
   0  38   81603.8    122.5   0.000000521   0.00000 ( -0.00008,  0.00009) ( -0.00000,  0.00000) ( -0.00034,  0.00040)
   0  39   83786.3    119.4   0.000000750   0.00000 (  0.00007,  0.00005) ( -0.00036, -0.00028) ( -0.00036, -0.00029)
   0  40   84994.7    117.7   0.031648199   0.01838 (  0.01976, -0.02336) (  0.00199, -0.00235) (  0.08528, -0.10083)

-------------------------------------------------------------------------------------------------------
                                     SOC CORRECTED CD SPECTRUM*  
-------------------------------------------------------------------------------------------------------
   State    Energy  Wavelength      R               MX                    MY                    MZ  
            (cm-1)     (nm)      (1e40*sgs)         (au)                  (au)                  (au) 
-------------------------------------------------------------------------------------------------------
   0   1   13378.6    747.5     -0.00000 (  0.00060, -0.00071) ( -0.00060,  0.00070) ( -0.00012,  0.00015)
   0   2   13378.8    747.5      0.00000 (  0.00028, -0.00044) (  0.00003, -0.00005) (  0.00119, -0.00190)
   0   3   13382.3    747.3      0.00001 (  0.00000,  0.00000) ( -0.00000, -0.00000) ( -0.00000, -0.00000)
   0   4   18363.0    544.6     -0.00394 (  0.29553,  0.23492) (  0.31267,  0.24854) ( -0.07662, -0.06090)
   0   5   25698.5    389.1      0.00000 (  0.00001, -0.00001) ( -0.00001,  0.00001) ( -0.00000,  0.00000)
   0   6   25698.7    389.1     -0.00000 ( -0.00061, -0.00040) ( -0.00007, -0.00004) ( -0.00262, -0.00172)
   0   7   25699.5    389.1      0.00000 (  0.00345,  0.00276) (  0.00364,  0.00292) ( -0.00089, -0.00072)
   0   8   45614.3    219.2     -0.00001 (  0.00000, -0.00000) ( -0.00000,  0.00000) ( -0.00000,  0.00000)
   0   9   45616.0    219.2     -0.00000 ( -0.00286,  0.00422) (  0.00285, -0.00420) (  0.00059, -0.00087)
   0  10   45616.2    219.2      0.00000 ( -0.00202, -0.00134) ( -0.00214, -0.00142) (  0.00052,  0.00035)
   0  11   50456.3    198.2      0.00000 ( -0.00061, -0.00048) ( -0.00065, -0.00051) (  0.00016,  0.00013)
   0  12   50456.3    198.2     -0.00000 ( -0.00000, -0.00000) (  0.00000,  0.00000) ( -0.00000, -0.00000)
   0  13   50456.5    198.2      0.00000 (  0.00087,  0.00018) (  0.00010,  0.00002) (  0.00375,  0.00076)
   0  14   55235.0    181.0     -0.02716 ( -0.17664,  0.02660) ( -0.01927,  0.00290) ( -0.76095,  0.11460)
   0  15   55513.1    180.1      0.00600 (  0.21782, -0.25545) ( -0.21693,  0.25441) ( -0.04516,  0.05296)
   0  16   56138.1    178.1     -0.00725 ( -0.00011,  0.00383) (  0.00011, -0.00389) (  0.00003, -0.00100)
   0  17   62089.5    161.1     -0.00000 (  0.00015, -0.00015) ( -0.00016,  0.00015) ( -0.00003,  0.00003)
   0  18   62089.6    161.1      0.00001 (  0.00007, -0.00088) (  0.00001, -0.00010) (  0.00029, -0.00378)
   0  19   62090.0    161.1      0.00001 ( -0.00000, -0.00001) (  0.00000,  0.00000) (  0.00000,  0.00000)
   0  20   62825.8    159.2     -0.00000 ( -0.00042, -0.00033) ( -0.00044, -0.00036) (  0.00012,  0.00010)
   0  21   62826.7    159.2     -0.00001 (  0.00000,  0.00008) ( -0.00000, -0.00009) ( -0.00000, -0.00002)
   0  22   62826.7    159.2      0.00000 (  0.00011,  0.00015) (  0.00008,  0.00011) (  0.00014,  0.00019)
   0  23   62877.8    159.0     -0.00001 ( -0.00104, -0.00083) ( -0.00110, -0.00088) (  0.00029,  0.00024)
   0  24   62878.0    159.0     -0.00000 ( -0.00002,  0.00090) (  0.00002, -0.00092) (  0.00000, -0.00018)
   0  25   62878.8    159.0     -0.00000 (  0.00006,  0.00005) (  0.00004,  0.00003) (  0.00012,  0.00009)
   0  26   66564.9    150.2     -0.01447 (  0.12544, -0.14849) ( -0.12475,  0.14768) ( -0.02591,  0.03067)
   0  27   67682.5    147.7     -3.29527 ( -0.00046, -0.00390) ( -0.00050, -0.00430) (  0.00013,  0.00113)
   0  28   67754.4    147.6      3.30004 ( -0.19802, -0.16520) ( -0.20952, -0.17480) (  0.05119,  0.04270)
   0  29   69480.6    143.9     -0.00000 ( -0.00023, -0.00001) ( -0.00024, -0.00001) (  0.00006,  0.00000)
   0  30   69481.1    143.9      0.00000 ( -0.00090,  0.00116) (  0.00089, -0.00116) (  0.00019, -0.00024)
   0  31   69481.1    143.9      0.00002 ( -0.00006,  0.00008) (  0.00006, -0.00008) (  0.00001, -0.00002)
   0  32   74005.1    135.1     -0.01270 (  0.00422, -0.00506) (  0.00047, -0.00057) (  0.01776, -0.02132)
   0  33   80831.8    123.7      0.00000 (  0.00002,  0.00002) (  0.00002,  0.00002) (  0.00000,  0.00000)
   0  34   80831.8    123.7     -0.00000 (  0.00000, -0.00000) (  0.00000, -0.00000) (  0.00000, -0.00003)
   0  35   80831.8    123.7     -0.00002 (  0.00063,  0.00057) (  0.00006,  0.00006) (  0.00269,  0.00244)
   0  36   81603.7    122.5      0.00000 ( -0.00010, -0.00008) ( -0.00012, -0.00010) (  0.00003,  0.00002)
   0  37   81603.8    122.5     -0.00000 ( -0.00000, -0.00001) (  0.00000,  0.00001) (  0.00000,  0.00000)
   0  38   81603.8    122.5      0.00002 ( -0.00233,  0.00277) (  0.00232, -0.00276) (  0.00049, -0.00058)
   0  39   83786.3    119.4      0.00215 ( -0.01033, -0.00814) ( -0.00949, -0.00748) (  0.00281,  0.00222)
   0  40   84994.7    117.7      0.12663 (  0.21214, -0.25082) ( -0.21133,  0.24987) ( -0.04378,  0.05176)

-------------------------------------------------------------------------------------------------------
                    SOC CORRECTED CD SPECTRUM VIA TRANSITION VELOCITY DIPOLE MOMENTS                   
-------------------------------------------------------------------------------------------------------
   State    Energy  Wavelengt      R               MX                    MY                    MZ  
            (cm-1)    (nm)     (1e40*sgs)         (au)                  (au)                  (au) 
-------------------------------------------------------------------------------------------------------
   0   1   13378.6    747.5     -0.00000 (  0.00060, -0.00071) ( -0.00060,  0.00070) ( -0.00012,  0.00015)
   0   2   13378.8    747.5     -0.00000 (  0.00028, -0.00044) (  0.00003, -0.00005) (  0.00119, -0.00190)
   0   3   13382.3    747.3      0.00000 (  0.00000,  0.00000) ( -0.00000, -0.00000) ( -0.00000, -0.00000)
   0   4   18363.0    544.6      0.04630 (  0.29553,  0.23492) (  0.31267,  0.24854) ( -0.07662, -0.06090)
   0   5   25698.5    389.1      0.00000 (  0.00001, -0.00001) ( -0.00001,  0.00001) ( -0.00000,  0.00000)
   0   6   25698.7    389.1     -0.00000 ( -0.00061, -0.00040) ( -0.00007, -0.00004) ( -0.00262, -0.00172)
   0   7   25699.5    389.1      0.00001 (  0.00345,  0.00276) (  0.00364,  0.00292) ( -0.00089, -0.00072)
   0   8   45614.3    219.2      0.00000 (  0.00000, -0.00000) ( -0.00000,  0.00000) ( -0.00000,  0.00000)
   0   9   45616.0    219.2      0.00000 ( -0.00286,  0.00422) (  0.00285, -0.00420) (  0.00059, -0.00087)
   0  10   45616.2    219.2      0.00000 ( -0.00202, -0.00134) ( -0.00214, -0.00142) (  0.00052,  0.00035)
   0  11   50456.3    198.2      0.00000 ( -0.00061, -0.00048) ( -0.00065, -0.00051) (  0.00016,  0.00013)
   0  12   50456.3    198.2      0.00000 ( -0.00000, -0.00000) (  0.00000,  0.00000) ( -0.00000, -0.00000)
   0  13   50456.5    198.2     -0.00000 (  0.00087,  0.00018) (  0.00010,  0.00002) (  0.00375,  0.00076)
   0  14   55235.0    181.0     -0.00200 ( -0.17664,  0.02660) ( -0.01927,  0.00290) ( -0.76095,  0.11460)
   0  15   55513.1    180.1     -0.00857 (  0.21782, -0.25545) ( -0.21693,  0.25441) ( -0.04516,  0.05296)
   0  16   56138.1    178.1     -0.00130 ( -0.00011,  0.00383) (  0.00011, -0.00389) (  0.00003, -0.00100)
   0  17   62089.5    161.1      0.00000 (  0.00015, -0.00015) ( -0.00016,  0.00015) ( -0.00003,  0.00003)
   0  18   62089.6    161.1     -0.00000 (  0.00007, -0.00088) (  0.00001, -0.00010) (  0.00029, -0.00378)
   0  19   62090.0    161.1     -0.00001 ( -0.00000, -0.00001) (  0.00000,  0.00000) (  0.00000,  0.00000)
   0  20   62825.8    159.2      0.00000 ( -0.00042, -0.00033) ( -0.00044, -0.00036) (  0.00012,  0.00010)
   0  21   62826.7    159.2      0.00001 (  0.00000,  0.00008) ( -0.00000, -0.00009) ( -0.00000, -0.00002)
   0  22   62826.7    159.2     -0.00000 (  0.00011,  0.00015) (  0.00008,  0.00011) (  0.00014,  0.00019)
   0  23   62877.8    159.0      0.00001 ( -0.00104, -0.00083) ( -0.00110, -0.00088) (  0.00029,  0.00024)
   0  24   62878.0    159.0     -0.00000 ( -0.00002,  0.00090) (  0.00002, -0.00092) (  0.00000, -0.00018)
   0  25   62878.8    159.0     -0.00000 (  0.00006,  0.00005) (  0.00004,  0.00003) (  0.00012,  0.00009)
   0  26   66564.9    150.2      0.01139 (  0.12544, -0.14849) ( -0.12475,  0.14768) ( -0.02591,  0.03067)
   0  27   67682.5    147.7      2.09483 ( -0.00046, -0.00390) ( -0.00050, -0.00430) (  0.00013,  0.00113)
   0  28   67754.4    147.6     -2.10508 ( -0.19802, -0.16520) ( -0.20952, -0.17480) (  0.05119,  0.04270)
   0  29   69480.6    143.9      0.00000 ( -0.00023, -0.00001) ( -0.00024, -0.00001) (  0.00006,  0.00000)
   0  30   69481.1    143.9     -0.00000 ( -0.00090,  0.00116) (  0.00089, -0.00116) (  0.00019, -0.00024)
   0  31   69481.1    143.9     -0.00001 ( -0.00006,  0.00008) (  0.00006, -0.00008) (  0.00001, -0.00002)
   0  32   74005.1    135.1      0.01325 (  0.00422, -0.00506) (  0.00047, -0.00057) (  0.01776, -0.02132)
   0  33   80831.8    123.7     -0.00000 (  0.00002,  0.00002) (  0.00002,  0.00002) (  0.00000,  0.00000)
   0  34   80831.8    123.7     -0.00000 (  0.00000, -0.00000) (  0.00000, -0.00000) (  0.00000, -0.00003)
   0  35   80831.8    123.7      0.00002 (  0.00063,  0.00057) (  0.00006,  0.00006) (  0.00269,  0.00244)
   0  36   81603.7    122.5      0.00000 ( -0.00010, -0.00008) ( -0.00012, -0.00010) (  0.00003,  0.00002)
   0  37   81603.8    122.5      0.00000 ( -0.00000, -0.00001) (  0.00000,  0.00001) (  0.00000,  0.00000)
   0  38   81603.8    122.5     -0.00002 ( -0.00233,  0.00277) (  0.00232, -0.00276) (  0.00049, -0.00058)
   0  39   83786.3    119.4     -0.00333 ( -0.01033, -0.00814) ( -0.00949, -0.00748) (  0.00281,  0.00222)
   0  40   84994.7    117.7     -0.11303 (  0.21214, -0.25082) ( -0.21133,  0.24987) ( -0.04378,  0.05176)

*The complex numbers are printed as (real, imaginary)

The electronic components of the SOC ground state dipole moment in a.u. are:
           X                     Y                     Z
(  1.66823,  0.00000) (  1.76491,  0.00000) ( -0.43232,  0.00000)

Total run time:       29.978 sec

           *** ORCA-CIS/TD-DFT FINISHED WITHOUT ERROR ***

Maximum memory used throughout the entire CIS-calculation: 84.4 MB

---------------------------
SOC CIS/TD-DFT TOTAL ENERGY
---------------------------

    E(SCF)        =   -437.295484802 Eh
    E(SOC CIS)    =      0.060941504 Eh (SOC Root  1)
    ----------------------------- ---------
    E(tot)        =   -437.234543298 Eh


-------------------------   --------------------
FINAL SINGLE POINT ENERGY      -437.234543298344
-------------------------   --------------------


                            ***************************************
                            *     ORCA property calculations      *
                            ***************************************

                                    ---------------------
                                    Active property flags
                                    ---------------------
   (+) Dipole Moment


------------------------------------------------------------------------------
                       ORCA ELECTRIC PROPERTIES CALCULATION
------------------------------------------------------------------------------

Dipole Moment Calculation                       ... on
Quadrupole Moment Calculation                   ... off
Polarizability Calculation                      ... off
GBWName                                         ... orca.gbw
Electron density                                ... orca.scfp
The origin for moment calculation is the CENTER OF MASS  = ( 8.932649,  8.356159  7.159616)

-------------
DIPOLE MOMENT
-------------
                                X             Y             Z
Electronic contribution:      1.66803       1.76470      -0.43227
Nuclear contribution   :     -2.14225      -2.26638       0.55507
                        -----------------------------------------
Total Dipole Moment    :     -0.47423      -0.50168       0.12280
                        -----------------------------------------
Magnitude (a.u.)       :      0.70118
Magnitude (Debye)      :      1.78226



--------------------
Rotational spectrum 
--------------------
 
Rotational constants in cm-1:     9.685172     0.586934     0.553398 
Rotational constants in MHz : 290354.166903 17595.849336 16590.446197 

 Dipole components along the rotational axes: 
x,y,z [a.u.] :     0.701180    -0.000080    -0.000022 
x,y,z [Debye]:     1.782258    -0.000203    -0.000056 

 

Timings for individual modules:

Sum of individual times         ...       39.755 sec (=   0.663 min)
GTO integral calculation        ...        0.169 sec (=   0.003 min)   0.4 %
SCF iterations                  ...        9.599 sec (=   0.160 min)  24.1 %
CIS module                      ...       29.987 sec (=   0.500 min)  75.4 %
                             ****ORCA TERMINATED NORMALLY****
TOTAL RUN TIME: 0 days 0 hours 0 minutes 39 seconds 861 msec
