 DBCSR| CPU Multiplication driver                                           XSMM (U)
 DBCSR| Multrec recursion limit                                              512 (U)
 DBCSR| Multiplication stack size                                           1000 (D)
 DBCSR| Maximum elements for images                                    UNLIMITED (U)
 DBCSR| Multiplicative factor virtual images                                   1 (U)
 DBCSR| Use multiplication densification                                       T (D)
 DBCSR| Multiplication size stacks                                             3 (U)
 DBCSR| Use memory pool for CPU allocation                                     F (U)
 DBCSR| Number of 3D layers                                               SINGLE (U)
 DBCSR| Use MPI memory allocation                                              F (U)
 DBCSR| Use RMA algorithm                                                      F (U)
 DBCSR| Use Communication thread                                               T (U)
 DBCSR| Communication thread load                                             83 (D)
 DBCSR| MPI: My process id                                                     0
 DBCSR| MPI: Number of processes                                             128
 DBCSR| OMP: Current number of threads                                         2
 DBCSR| OMP: Max number of threads                                             2
 DBCSR| Split modifier for TAS multiplication algorithm                  1.0E+00 (U)


  **** **** ******  **  PROGRAM STARTED AT               2023-12-06 14:05:40.057
 ***** ** ***  *** **   PROGRAM STARTED ON                           nesh-srp134
 **    ****   ******    PROGRAM STARTED BY                              suphc355
 ***** **    ** ** **   PROGRAM PROCESS ID                               1989377
  **** **  *******  **  PROGRAM STARTED IN /gxfs_work/cau/suphc355/benchmark_pbe
                                           0/pbe0_bm_ae/nitromethan

 CP2K| version string:                 CP2K version 2023.2 (Development Version)
 CP2K| source code revision number:                                  git:845a3ae
 CP2K| cp2kflags: omp libint fftw3 libxc parallel mpi_f08 scalapack cosma xsmm s
 CP2K|            pglib mkl
 CP2K| is freely available from                            https://www.cp2k.org/
 CP2K| Program compiled at                           Fr 1. Dez 12:58:35 CET 2023
 CP2K| Program compiled on                                           nesh-login3
 CP2K| Program compiled for                                                local
 CP2K| Data directory path            /gxfs_home/cau/suphc355/software/cp2k/data
 CP2K| Input file name                                                   les.inp
 
 GLOBAL| Force Environment number                                              1
 GLOBAL| Basis set file name                                            ../basis
 GLOBAL| Potential file name                                           POTENTIAL
 GLOBAL| MM Potential file name                                     MM_POTENTIAL
 GLOBAL| Coordinate file name                                            lit.xyz
 GLOBAL| Method name                                                        CP2K
 GLOBAL| Project name                                           nitromethan_less
 GLOBAL| Run type                                                         ENERGY
 GLOBAL| FFT library                                                       FFTW3
 GLOBAL| Diagonalization library                                       ScaLAPACK
 GLOBAL| DGEMM library                                                      BLAS
 GLOBAL| Orthonormality check for eigenvectors                          DISABLED
 GLOBAL| Matrix multiplication library                                     COSMA
 GLOBAL| All-to-all communication in single precision                          F
 GLOBAL| FFTs using library dependent lengths                                  F
 GLOBAL| Grid backend                                                       AUTO
 GLOBAL| Global print level                                               MEDIUM
 GLOBAL| MPI I/O enabled                                                       T
 GLOBAL| Total number of message passing processes                           128
 GLOBAL| Number of threads for this process                                    2
 GLOBAL| This output is from process                                           0
 GLOBAL| Stack size for threads created by OpenMP (OMP_STACKSIZE)        default
 GLOBAL| CPU model name                              Intel(R) Xeon(R) Gold 6426Y
 GLOBAL| CPUID                                                              1003

 MEMORY| system memory details [Kb]
 MEMORY|                        rank 0           min           max       average
 MEMORY| MemTotal            263786136     263786136     263786136     263786136
 MEMORY| MemFree             244176488     244176488     244271580     244229933
 MEMORY| Buffers                842540        822948        842540        831708
 MEMORY| Cached                 737040        712276        737040        728114
 MEMORY| Slab                   502000        495604        510380        502099
 MEMORY| SReclaimable           136612        129956        136612        133620
 MEMORY| MemLikelyFree       245892680     245892680     245956660     245923375


 *** Fundamental physical constants (SI units) ***

 *** Literature: B. J. Mohr and B. N. Taylor,
 ***             CODATA recommended values of the fundamental physical
 ***             constants: 2006, Web Version 5.1
 ***             http://physics.nist.gov/constants

 Speed of light in vacuum [m/s]                             2.99792458000000E+08
 Magnetic constant or permeability of vacuum [N/A**2]       1.25663706143592E-06
 Electric constant or permittivity of vacuum [F/m]          8.85418781762039E-12
 Planck constant (h) [J*s]                                  6.62606896000000E-34
 Planck constant (h-bar) [J*s]                              1.05457162825177E-34
 Elementary charge [C]                                      1.60217648700000E-19
 Electron mass [kg]                                         9.10938215000000E-31
 Electron g factor [ ]                                     -2.00231930436220E+00
 Proton mass [kg]                                           1.67262163700000E-27
 Fine-structure constant                                    7.29735253760000E-03
 Rydberg constant [1/m]                                     1.09737315685270E+07
 Avogadro constant [1/mol]                                  6.02214179000000E+23
 Boltzmann constant [J/K]                                   1.38065040000000E-23
 Atomic mass unit [kg]                                      1.66053878200000E-27
 Bohr radius [m]                                            5.29177208590000E-11

 *** Conversion factors ***

 [u] -> [a.u.]                                              1.82288848426455E+03
 [Angstrom] -> [Bohr] = [a.u.]                              1.88972613288564E+00
 [a.u.] = [Bohr] -> [Angstrom]                              5.29177208590000E-01
 [a.u.] -> [s]                                              2.41888432650478E-17
 [a.u.] -> [fs]                                             2.41888432650478E-02
 [a.u.] -> [J]                                              4.35974393937059E-18
 [a.u.] -> [N]                                              8.23872205491840E-08
 [a.u.] -> [K]                                              3.15774647902944E+05
 [a.u.] -> [kJ/mol]                                         2.62549961709828E+03
 [a.u.] -> [kcal/mol]                                       6.27509468713739E+02
 [a.u.] -> [Pa]                                             2.94210107994716E+13
 [a.u.] -> [bar]                                            2.94210107994716E+08
 [a.u.] -> [atm]                                            2.90362800883016E+08
 [a.u.] -> [eV]                                             2.72113838565563E+01
 [a.u.] -> [Hz]                                             6.57968392072181E+15
 [a.u.] -> [1/cm] (wave numbers)                            2.19474631370540E+05
 [a.u./Bohr**2] -> [1/cm]                                   5.14048714338585E+03
 

 CELL_TOP| Volume [angstrom^3]:                                      1000.000000
 CELL_TOP| Vector a [angstrom    10.000     0.000     0.000   |a| =    10.000000
 CELL_TOP| Vector b [angstrom     0.000    10.000     0.000   |b| =    10.000000
 CELL_TOP| Vector c [angstrom     0.000     0.000    10.000   |c| =    10.000000
 CELL_TOP| Angle (b,c), alpha [degree]:                                90.000000
 CELL_TOP| Angle (a,c), beta  [degree]:                                90.000000
 CELL_TOP| Angle (a,b), gamma [degree]:                                90.000000
 CELL_TOP| Numerically orthorhombic:                                         YES
 CELL_TOP| Periodicity                                                      NONE

 CELL| Volume [angstrom^3]:                                          1000.000000
 CELL| Vector a [angstrom]:      10.000     0.000     0.000   |a| =    10.000000
 CELL| Vector b [angstrom]:       0.000    10.000     0.000   |b| =    10.000000
 CELL| Vector c [angstrom]:       0.000     0.000    10.000   |c| =    10.000000
 CELL| Angle (b,c), alpha [degree]:                                    90.000000
 CELL| Angle (a,c), beta  [degree]:                                    90.000000
 CELL| Angle (a,b), gamma [degree]:                                    90.000000
 CELL| Numerically orthorhombic:                                             YES
 CELL| Periodicity                                                          NONE

 CELL_REF| Volume [angstrom^3]:                                      1000.000000
 CELL_REF| Vector a [angstrom    10.000     0.000     0.000   |a| =    10.000000
 CELL_REF| Vector b [angstrom     0.000    10.000     0.000   |b| =    10.000000
 CELL_REF| Vector c [angstrom     0.000     0.000    10.000   |c| =    10.000000
 CELL_REF| Angle (b,c), alpha [degree]:                                90.000000
 CELL_REF| Angle (a,c), beta  [degree]:                                90.000000
 CELL_REF| Angle (a,b), gamma [degree]:                                90.000000
 CELL_REF| Numerically orthorhombic:                                         YES
 CELL_REF| Periodicity                                                      NONE

 *******************************************************************************
 *******************************************************************************
 **                                                                           **
 **     #####                         ##              ##                      **
 **    ##   ##            ##          ##              ##                      **
 **   ##     ##                       ##            ######                    **
 **   ##     ##  ##   ##  ##   #####  ##  ##   ####   ##    #####    #####    **
 **   ##     ##  ##   ##  ##  ##      ## ##   ##      ##   ##   ##  ##   ##   **
 **   ##  ## ##  ##   ##  ##  ##      ####     ###    ##   ######   ######    **
 **    ##  ###   ##   ##  ##  ##      ## ##      ##   ##   ##       ##        **
 **     #######   #####   ##   #####  ##  ##  ####    ##    #####   ##        **
 **           ##                                                    ##        **
 **                                                                           **
 **                                                ... make the atoms dance   **
 **                                                                           **
 **            Copyright (C) by CP2K developers group (2000-2023)             **
 **                      J. Chem. Phys. 152, 194103 (2020)                    **
 **                                                                           **
 *******************************************************************************

 DFT| Spin restricted Kohn-Sham (RKS) calculation                            RKS
 DFT| Multiplicity                                                             1
 DFT| Number of spin states                                                    1
 DFT| Charge                                                                   0
 DFT| Self-interaction correction (SIC)                                       NO
 DFT| Cutoffs: density                                              1.000000E-10
 DFT|          gradient                                             1.000000E-10
 DFT|          tau                                                  1.000000E-10
 DFT|          cutoff_smoothing_range                               0.000000E+00
 DFT| XC density smoothing                                                  NONE
 DFT| XC derivatives                                                          PW

 FUNCTIONAL| PBE:
 FUNCTIONAL| J.P.Perdew, K.Burke, M.Ernzerhof, Phys. Rev. Letter, vol. 77, n 18,
 FUNCTIONAL|  pp. 3865-3868, (1996)sx=0.750sc=1.000{spin unpolarized}           


 QS| Method:                                                                GAPW
 QS| Density plane wave grid type                        NON-SPHERICAL FULLSPACE
 QS| Number of grid levels:                                                    5
 QS| Density cutoff [a.u.]:                                                600.0
 QS| Multi grid cutoff [a.u.]: 1) grid level                               600.0
 QS|                           2) grid level                               200.0
 QS|                           3) grid level                                66.7
 QS|                           4) grid level                                22.2
 QS|                           5) grid level                                 7.4
 QS| Grid level progression factor:                                          3.0
 QS| Relative density cutoff [a.u.]:                                        40.0
 QS| Interaction thresholds: eps_pgf_orb:                                1.0E-30
 QS|                         eps_filter_matrix:                          0.0E+00
 QS|                         eps_core_charge:                            1.0E-17
 QS|                         eps_rho_gspace:                             1.0E-15
 QS|                         eps_rho_rspace:                             1.0E-15
 QS|                         eps_gvg_rspace:                             3.2E-08
 QS|                         eps_ppl:                                    1.0E-02
 QS|                         eps_ppnl:                                   3.2E-10
 QS| GAPW|      One center basis from orbital basis primitives
 QS| GAPW|                   eps_fit:                                    1.0E-04
 QS| GAPW|                   eps_iso:                                    1.0E-12
 QS| GAPW|                   eps_svd:                                    1.0E-08
 QS| GAPW|                   eps_cpc:                                    1.0E-15
 QS| GAPW|   atom-r-grid: quadrature:                                     GC_LOG
 QS| GAPW|      atom-s-grid:  max l :                                          6
 QS| GAPW|      max_l_rho0 :                                                   2


 ATOMIC KIND INFORMATION

  1. Atomic kind: N                                     Number of atoms:       1

     Orbital Basis Set                                                def2-TZVPD

       Number of orbital shell sets:                                          13
       Number of orbital shells:                                              13
       Number of primitive Cartesian functions:                               22
       Number of Cartesian basis functions:                                   43
       Number of spherical basis functions:                                   37
       Norm type:                                                              2

       Normalised Cartesian orbitals:

                        Set   Shell   Orbital            Exponent    Coefficient

                          1       1    1s            19730.800647       0.695604
                                                      2957.895874       1.298610
                                                       673.221336       2.219088
                                                       190.682495       3.463661
                                                        62.295442       4.696756
                                                        22.654161       4.952251

                          2       1    1s                8.979148       2.388068
                                                         3.686300       0.733788

                          3       1    1s                0.846601       0.629027

                          4       1    1s                0.336471       0.314863

                          5       1    1s                0.136477       0.160031

                          6       1    1s                0.068442       0.095367

                          7       1    1px              49.200381       2.126481
                                                        11.346791       2.327937
                                                         3.427397       2.048573
                                                         1.178553       1.260732
                          7       1    1py              49.200381       2.126481
                                                        11.346791       2.327937
                                                         3.427397       2.048573
                                                         1.178553       1.260732
                          7       1    1pz              49.200381       2.126481
                                                        11.346791       2.327937
                                                         3.427397       2.048573
                                                         1.178553       1.260732

                          8       1    1px               0.416422       0.476823
                          8       1    1py               0.416422       0.476823
                          8       1    1pz               0.416422       0.476823

                          9       1    1px               0.142608       0.124917
                          9       1    1py               0.142608       0.124917
                          9       1    1pz               0.142608       0.124917

                         10       1    1dx2              1.654000       3.970513
                         10       1    1dxy              1.654000       6.877130
                         10       1    1dxz              1.654000       6.877130
                         10       1    1dy2              1.654000       3.970513
                         10       1    1dyz              1.654000       6.877130
                         10       1    1dz2              1.654000       3.970513

                         11       1    1dx2              0.469000       0.437484
                         11       1    1dxy              0.469000       0.757744
                         11       1    1dxz              0.469000       0.757744
                         11       1    1dy2              0.469000       0.437484
                         11       1    1dyz              0.469000       0.757744
                         11       1    1dz2              0.469000       0.437484

                         12       1    1dx2              0.128296       0.045267
                         12       1    1dxy              0.128296       0.078405
                         12       1    1dxz              0.128296       0.078405
                         12       1    1dy2              0.128296       0.045267
                         12       1    1dyz              0.128296       0.078405
                         12       1    1dz2              0.128296       0.045267

                         13       1    1fx3              1.093000       1.798249
                         13       1    1fx2y             1.093000       4.021007
                         13       1    1fx2z             1.093000       4.021007
                         13       1    1fxy2             1.093000       4.021007
                         13       1    1fxyz             1.093000       6.964588
                         13       1    1fxz2             1.093000       4.021007
                         13       1    1fy3              1.093000       1.798249
                         13       1    1fy2z             1.093000       4.021007
                         13       1    1fyz2             1.093000       4.021007
                         13       1    1fz3              1.093000       1.798249

       Atomic covalent radius [Angstrom]:                                  0.750

       Atomic van der Waals radius [Angstrom]:                             1.550

     The atoms of this atomic kind are PAW atoms (GAPW):
       Hard Gaussian function radius:                                      1.512
       Rho0 radius:                                                        1.512
       Maximum GTO radius used for PAW projector construction:            24.566

     GAPW Soft Basis Set                                         def2-TZVPD_soft

       Number of orbital shell sets:                                          13
       Number of orbital shells:                                              13
       Number of primitive Cartesian functions:                               13
       Number of Cartesian basis functions:                                   43
       Number of spherical basis functions:                                   37
       Norm type:                                                              2

       Normalised Cartesian orbitals:

                        Set   Shell   Orbital            Exponent    Coefficient

                          1       1    1s         

                          2       1    1s                3.686300       0.733788

                          3       1    1s                0.846601       0.629027

                          4       1    1s                0.336471       0.314863

                          5       1    1s                0.136477       0.160031

                          6       1    1s                0.068442       0.095367

                          7       1    1px               3.427397       2.048573
                                                         1.178553       1.260732
                          7       1    1py               3.427397       2.048573
                                                         1.178553       1.260732
                          7       1    1pz               3.427397       2.048573
                                                         1.178553       1.260732

                          8       1    1px               0.416422       0.476823
                          8       1    1py               0.416422       0.476823
                          8       1    1pz               0.416422       0.476823

                          9       1    1px               0.142608       0.124917
                          9       1    1py               0.142608       0.124917
                          9       1    1pz               0.142608       0.124917

                         10       1    1dx2              1.654000       3.970513
                         10       1    1dxy              1.654000       6.877130
                         10       1    1dxz              1.654000       6.877130
                         10       1    1dy2              1.654000       3.970513
                         10       1    1dyz              1.654000       6.877130
                         10       1    1dz2              1.654000       3.970513

                         11       1    1dx2              0.469000       0.437484
                         11       1    1dxy              0.469000       0.757744
                         11       1    1dxz              0.469000       0.757744
                         11       1    1dy2              0.469000       0.437484
                         11       1    1dyz              0.469000       0.757744
                         11       1    1dz2              0.469000       0.437484

                         12       1    1dx2              0.128296       0.045267
                         12       1    1dxy              0.128296       0.078405
                         12       1    1dxz              0.128296       0.078405
                         12       1    1dy2              0.128296       0.045267
                         12       1    1dyz              0.128296       0.078405
                         12       1    1dz2              0.128296       0.045267

                         13       1    1fx3              1.093000       1.798249
                         13       1    1fx2y             1.093000       4.021007
                         13       1    1fx2z             1.093000       4.021007
                         13       1    1fxy2             1.093000       4.021007
                         13       1    1fxyz             1.093000       6.964588
                         13       1    1fxz2             1.093000       4.021007
                         13       1    1fy3              1.093000       1.798249
                         13       1    1fy2z             1.093000       4.021007
                         13       1    1fyz2             1.093000       4.021007
                         13       1    1fz3              1.093000       1.798249

     AE Potential information for                                            ALL

       Description:                                       All-electron potential
                                          Krack, Parrinello, PCCP 2, 2105 (2000)

       Gaussian exponent of the core charge distribution:               5.979100
       Electronic configuration (s p d ...):                           4   3   0

  2. Atomic kind: O                                     Number of atoms:       2

     Orbital Basis Set                                                def2-TZVPD

       Number of orbital shell sets:                                          14
       Number of orbital shells:                                              14
       Number of primitive Cartesian functions:                               23
       Number of Cartesian basis functions:                                   46
       Number of spherical basis functions:                                   40
       Norm type:                                                              2

       Normalised Cartesian orbitals:

                        Set   Shell   Orbital            Exponent    Coefficient

                          1       1    1s            27032.382631       0.859858
                                                      4052.387139       1.605531
                                                       922.327227       2.745878
                                                       261.240710       4.298767
                                                        85.354641       5.879766
                                                        31.035035       6.316398

                          2       1    1s               12.260861       2.981215
                                                         4.998708       0.941956

                          3       1    1s                1.170311       0.801929

                          4       1    1s                0.464747       0.401165

                          5       1    1s                0.185045       0.201080

                          6       1    1s                0.070288       0.097291

                          7       1    1px              63.274955       3.057202
                                                        14.627049       3.384484
                                                         4.450122       2.947426
                                                         1.527580       1.711827
                          7       1    1py              63.274955       3.057202
                                                        14.627049       3.384484
                                                         4.450122       2.947426
                                                         1.527580       1.711827
                          7       1    1pz              63.274955       3.057202
                                                        14.627049       3.384484
                                                         4.450122       2.947426
                                                         1.527580       1.711827

                          8       1    1px               0.529351       0.643606
                          8       1    1py               0.529351       0.643606
                          8       1    1pz               0.529351       0.643606

                          9       1    1px               0.174784       0.161090
                          9       1    1py               0.174784       0.161090
                          9       1    1pz               0.174784       0.161090

                         10       1    1px               0.051113       0.034642
                         10       1    1py               0.051113       0.034642
                         10       1    1pz               0.051113       0.034642

                         11       1    1dx2              2.314000       7.145709
                         11       1    1dxy              2.314000      12.376731
                         11       1    1dxz              2.314000      12.376731
                         11       1    1dy2              2.314000       7.145709
                         11       1    1dyz              2.314000      12.376731
                         11       1    1dz2              2.314000       7.145709

                         12       1    1dx2              0.645000       0.764080
                         12       1    1dxy              0.645000       1.323426
                         12       1    1dxz              0.645000       1.323426
                         12       1    1dy2              0.645000       0.764080
                         12       1    1dyz              0.645000       1.323426
                         12       1    1dz2              0.645000       0.764080

                         13       1    1dx2              0.146965       0.057416
                         13       1    1dxy              0.146965       0.099447
                         13       1    1dxz              0.146965       0.099447
                         13       1    1dy2              0.146965       0.057416
                         13       1    1dyz              0.146965       0.099447
                         13       1    1dz2              0.146965       0.057416

                         14       1    1fx3              1.428000       3.281655
                         14       1    1fx2y             1.428000       7.338004
                         14       1    1fx2z             1.428000       7.338004
                         14       1    1fxy2             1.428000       7.338004
                         14       1    1fxyz             1.428000      12.709795
                         14       1    1fxz2             1.428000       7.338004
                         14       1    1fy3              1.428000       3.281655
                         14       1    1fy2z             1.428000       7.338004
                         14       1    1fyz2             1.428000       7.338004
                         14       1    1fz3              1.428000       3.281655

       Atomic covalent radius [Angstrom]:                                  0.730

       Atomic van der Waals radius [Angstrom]:                             1.520

     The atoms of this atomic kind are PAW atoms (GAPW):
       Hard Gaussian function radius:                                      1.512
       Rho0 radius:                                                        1.512
       Maximum GTO radius used for PAW projector construction:            24.566

     GAPW Soft Basis Set                                         def2-TZVPD_soft

       Number of orbital shell sets:                                          14
       Number of orbital shells:                                              14
       Number of primitive Cartesian functions:                               12
       Number of Cartesian basis functions:                                   46
       Number of spherical basis functions:                                   40
       Norm type:                                                              2

       Normalised Cartesian orbitals:

                        Set   Shell   Orbital            Exponent    Coefficient

                          1       1    1s         

                          2       1    1s         

                          3       1    1s                1.170311       0.801929

                          4       1    1s                0.464747       0.401165

                          5       1    1s                0.185045       0.201080

                          6       1    1s                0.070288       0.097291

                          7       1    1px               1.527580       1.711827
                          7       1    1py               1.527580       1.711827
                          7       1    1pz               1.527580       1.711827

                          8       1    1px               0.529351       0.643606
                          8       1    1py               0.529351       0.643606
                          8       1    1pz               0.529351       0.643606

                          9       1    1px               0.174784       0.161090
                          9       1    1py               0.174784       0.161090
                          9       1    1pz               0.174784       0.161090

                         10       1    1px               0.051113       0.034642
                         10       1    1py               0.051113       0.034642
                         10       1    1pz               0.051113       0.034642

                         11       1    1dx2              2.314000       7.145709
                         11       1    1dxy              2.314000      12.376731
                         11       1    1dxz              2.314000      12.376731
                         11       1    1dy2              2.314000       7.145709
                         11       1    1dyz              2.314000      12.376731
                         11       1    1dz2              2.314000       7.145709

                         12       1    1dx2              0.645000       0.764080
                         12       1    1dxy              0.645000       1.323426
                         12       1    1dxz              0.645000       1.323426
                         12       1    1dy2              0.645000       0.764080
                         12       1    1dyz              0.645000       1.323426
                         12       1    1dz2              0.645000       0.764080

                         13       1    1dx2              0.146965       0.057416
                         13       1    1dxy              0.146965       0.099447
                         13       1    1dxz              0.146965       0.099447
                         13       1    1dy2              0.146965       0.057416
                         13       1    1dyz              0.146965       0.099447
                         13       1    1dz2              0.146965       0.057416

                         14       1    1fx3              1.428000       3.281655
                         14       1    1fx2y             1.428000       7.338004
                         14       1    1fx2z             1.428000       7.338004
                         14       1    1fxy2             1.428000       7.338004
                         14       1    1fxyz             1.428000      12.709795
                         14       1    1fxz2             1.428000       7.338004
                         14       1    1fy3              1.428000       3.281655
                         14       1    1fy2z             1.428000       7.338004
                         14       1    1fyz2             1.428000       7.338004
                         14       1    1fz3              1.428000       3.281655

     AE Potential information for                                            ALL

       Description:                                       All-electron potential
                                          Krack, Parrinello, PCCP 2, 2105 (2000)

       Gaussian exponent of the core charge distribution:               8.154466
       Electronic configuration (s p d ...):                           4   4   0

  3. Atomic kind: C                                     Number of atoms:       1

     Orbital Basis Set                                                def2-TZVPD

       Number of orbital shell sets:                                          13
       Number of orbital shells:                                              13
       Number of primitive Cartesian functions:                               22
       Number of Cartesian basis functions:                                   43
       Number of spherical basis functions:                                   37
       Norm type:                                                              2

       Normalised Cartesian orbitals:

                        Set   Shell   Orbital            Exponent    Coefficient

                          1       1    1s            13575.349682       0.543591
                                                      2035.233368       1.014554
                                                       463.225624       1.731573
                                                       131.200196       2.691038
                                                        42.853016       3.604455
                                                        15.584186       3.702556

                          2       1    1s                6.206714       1.838354
                                                         2.576490       0.544758

                          3       1    1s                0.576963       0.471815

                          4       1    1s                0.229728       0.236494

                          5       1    1s                0.095164       0.122114

                          6       1    1s                0.048475       0.073629

                          7       1    1px              34.697232       1.359665
                                                         7.958262       1.451259
                                                         2.378083       1.270923
                                                         0.814332       0.802572
                          7       1    1py              34.697232       1.359665
                                                         7.958262       1.451259
                                                         2.378083       1.270923
                                                         0.814332       0.802572
                          7       1    1pz              34.697232       1.359665
                                                         7.958262       1.451259
                                                         2.378083       1.270923
                                                         0.814332       0.802572

                          8       1    1px               0.288875       0.301876
                          8       1    1py               0.288875       0.301876
                          8       1    1pz               0.288875       0.301876

                          9       1    1px               0.100568       0.080727
                          9       1    1py               0.100568       0.080727
                          9       1    1pz               0.100568       0.080727

                         10       1    1dx2              1.097000       1.935401
                         10       1    1dxy              1.097000       3.352214
                         10       1    1dxz              1.097000       3.352214
                         10       1    1dy2              1.097000       1.935401
                         10       1    1dyz              1.097000       3.352214
                         10       1    1dz2              1.097000       1.935401

                         11       1    1dx2              0.318000       0.221644
                         11       1    1dxy              0.318000       0.383899
                         11       1    1dxz              0.318000       0.383899
                         11       1    1dy2              0.318000       0.221644
                         11       1    1dyz              0.318000       0.383899
                         11       1    1dz2              0.318000       0.221644

                         12       1    1dx2              0.090985       0.024809
                         12       1    1dxy              0.090985       0.042970
                         12       1    1dxz              0.090985       0.042970
                         12       1    1dy2              0.090985       0.024809
                         12       1    1dyz              0.090985       0.042970
                         12       1    1dz2              0.090985       0.024809

                         13       1    1fx3              0.761000       0.796288
                         13       1    1fx2y             0.761000       1.780553
                         13       1    1fx2z             0.761000       1.780553
                         13       1    1fxy2             0.761000       1.780553
                         13       1    1fxyz             0.761000       3.084008
                         13       1    1fxz2             0.761000       1.780553
                         13       1    1fy3              0.761000       0.796288
                         13       1    1fy2z             0.761000       1.780553
                         13       1    1fyz2             0.761000       1.780553
                         13       1    1fz3              0.761000       0.796288

       Atomic covalent radius [Angstrom]:                                  0.770

       Atomic van der Waals radius [Angstrom]:                             1.700

     The atoms of this atomic kind are PAW atoms (GAPW):
       Hard Gaussian function radius:                                      1.512
       Rho0 radius:                                                        1.512
       Maximum GTO radius used for PAW projector construction:            24.566

     GAPW Soft Basis Set                                         def2-TZVPD_soft

       Number of orbital shell sets:                                          13
       Number of orbital shells:                                              13
       Number of primitive Cartesian functions:                               13
       Number of Cartesian basis functions:                                   43
       Number of spherical basis functions:                                   37
       Norm type:                                                              2

       Normalised Cartesian orbitals:

                        Set   Shell   Orbital            Exponent    Coefficient

                          1       1    1s         

                          2       1    1s                2.576490       0.544758

                          3       1    1s                0.576963       0.471815

                          4       1    1s                0.229728       0.236494

                          5       1    1s                0.095164       0.122114

                          6       1    1s                0.048475       0.073629

                          7       1    1px               2.378083       1.270923
                                                         0.814332       0.802572
                          7       1    1py               2.378083       1.270923
                                                         0.814332       0.802572
                          7       1    1pz               2.378083       1.270923
                                                         0.814332       0.802572

                          8       1    1px               0.288875       0.301876
                          8       1    1py               0.288875       0.301876
                          8       1    1pz               0.288875       0.301876

                          9       1    1px               0.100568       0.080727
                          9       1    1py               0.100568       0.080727
                          9       1    1pz               0.100568       0.080727

                         10       1    1dx2              1.097000       1.935401
                         10       1    1dxy              1.097000       3.352214
                         10       1    1dxz              1.097000       3.352214
                         10       1    1dy2              1.097000       1.935401
                         10       1    1dyz              1.097000       3.352214
                         10       1    1dz2              1.097000       1.935401

                         11       1    1dx2              0.318000       0.221644
                         11       1    1dxy              0.318000       0.383899
                         11       1    1dxz              0.318000       0.383899
                         11       1    1dy2              0.318000       0.221644
                         11       1    1dyz              0.318000       0.383899
                         11       1    1dz2              0.318000       0.221644

                         12       1    1dx2              0.090985       0.024809
                         12       1    1dxy              0.090985       0.042970
                         12       1    1dxz              0.090985       0.042970
                         12       1    1dy2              0.090985       0.024809
                         12       1    1dyz              0.090985       0.042970
                         12       1    1dz2              0.090985       0.024809

                         13       1    1fx3              0.761000       0.796288
                         13       1    1fx2y             0.761000       1.780553
                         13       1    1fx2z             0.761000       1.780553
                         13       1    1fxy2             0.761000       1.780553
                         13       1    1fxyz             0.761000       3.084008
                         13       1    1fxz2             0.761000       1.780553
                         13       1    1fy3              0.761000       0.796288
                         13       1    1fy2z             0.761000       1.780553
                         13       1    1fyz2             0.761000       1.780553
                         13       1    1fz3              0.761000       0.796288

     AE Potential information for                                            ALL

       Description:                                       All-electron potential
                                          Krack, Parrinello, PCCP 2, 2105 (2000)

       Gaussian exponent of the core charge distribution:               4.109048
       Electronic configuration (s p d ...):                           4   2   0

  4. Atomic kind: H                                     Number of atoms:       3

     Orbital Basis Set                                                def2-TZVPD

       Number of orbital shell sets:                                           5
       Number of orbital shells:                                               5
       Number of primitive Cartesian functions:                                7
       Number of Cartesian basis functions:                                    9
       Number of spherical basis functions:                                    9
       Norm type:                                                              2

       Normalised Cartesian orbitals:

                        Set   Shell   Orbital            Exponent    Coefficient

                          1       1    1s               34.061341       0.255630
                                                         5.123575       0.461360
                                                         1.164663       0.681121

                          2       1    1s                0.327230       0.308355

                          3       1    1s                0.103072       0.129648

                          4       1    1px               0.800000       1.078456
                          4       1    1py               0.800000       1.078456
                          4       1    1pz               0.800000       1.078456

                          5       1    1px               0.095774       0.075945
                          5       1    1py               0.095774       0.075945
                          5       1    1pz               0.095774       0.075945

       Atomic covalent radius [Angstrom]:                                  0.320

       Atomic van der Waals radius [Angstrom]:                             1.090

     The atoms of this atomic kind are PAW atoms (GAPW):
       Hard Gaussian function radius:                                      1.200
       Rho0 radius:                                                        1.200
       Maximum GTO radius used for PAW projector construction:            24.566

     GAPW Soft Basis Set                                         def2-TZVPD_soft

       Number of orbital shell sets:                                           5
       Number of orbital shells:                                               5
       Number of primitive Cartesian functions:                                6
       Number of Cartesian basis functions:                                    9
       Number of spherical basis functions:                                    9
       Norm type:                                                              2

       Normalised Cartesian orbitals:

                        Set   Shell   Orbital            Exponent    Coefficient

                          1       1    1s                5.123575       0.461360
                                                         1.164663       0.681121

                          2       1    1s                0.327230       0.308355

                          3       1    1s                0.103072       0.129648

                          4       1    1px               0.800000       1.078456
                          4       1    1py               0.800000       1.078456
                          4       1    1pz               0.800000       1.078456

                          5       1    1px               0.095774       0.075945
                          5       1    1py               0.095774       0.075945
                          5       1    1pz               0.095774       0.075945

     AE Potential information for                                            ALL

       Description:                                       All-electron potential
                                          Krack, Parrinello, PCCP 2, 2105 (2000)

       Gaussian exponent of the core charge distribution:              12.500000
       Electronic configuration (s p d ...):                           1   0   0


 MOLECULE KIND INFORMATION


 All atoms are their own molecule, skipping detailed information


 TOTAL NUMBERS AND MAXIMUM NUMBERS

  Total number of            - Atomic kinds:                                   4
                             - Atoms:                                          7
                             - Shell sets:                                    69
                             - Shells:                                        69
                             - Primitive Cartesian functions:                111
                             - Cartesian basis functions:                    205
                             - Spherical basis functions:                    181

  Maximum angular momentum of the orbital basis functions:                     3


 MODULE QUICKSTEP: ATOMIC COORDINATES IN ANGSTROM

   Atom Kind Element         X             Y             Z       Z(eff)     Mass
      1    1 N     7      5.415070      4.709688      5.000000   7.0000  14.0067
      2    2 O     8      5.357470      3.489776      5.000000   8.0000  15.9994
      3    2 O     8      6.439203      5.374172      5.000000   8.0000  15.9994
      4    3 C     6      4.103022      5.445356      5.000000   6.0000  12.0107
      5    4 H     1      4.307821      6.510224      5.000000   1.0000   1.0079
      6    4 H     1      3.560797      5.132393      4.110565   1.0000   1.0079
      7    4 H     1      3.560797      5.132393      5.889435   1.0000   1.0079



 SCF PARAMETERS         Density guess:                                   RESTART
                        --------------------------------------------------------
                        max_scf:                                              20
                        max_scf_history:                                       0
                        max_diis:                                              4
                        --------------------------------------------------------
                        eps_scf:                                        1.00E-07
                        eps_scf_history:                                0.00E+00
                        eps_diis:                                       1.00E-01
                        eps_eigval:                                     1.00E-05
                        --------------------------------------------------------
                        level_shift [a.u.]:                             0.000000
                        --------------------------------------------------------
                        Outer loop SCF in use 
                        No variables optimised in outer loop
                        eps_scf                                         1.00E-07
                        max_scf                                              200
                        No outer loop optimization
                        step_size                                       5.00E-01

 PW_GRID| Information for grid number                                          1
 PW_GRID| Grid distributed over                                   128 processors
 PW_GRID| Real space group dimensions                                   128    1
 PW_GRID| the grid is blocked:                                                NO
 PW_GRID| Cutoff [a.u.]                                                   1200.0
 PW_GRID| spherical cutoff:                                                   NO
 PW_GRID|   Bounds   1           -150     149                Points:         300
 PW_GRID|   Bounds   2           -150     149                Points:         300
 PW_GRID|   Bounds   3           -150     149                Points:         300
 PW_GRID| Volume element (a.u.^3)  0.2499E-03     Volume (a.u.^3)      6748.3346
 PW_GRID| Grid span                                                    FULLSPACE
 PW_GRID|   Distribution                         Average         Max         Min
 PW_GRID|   G-Vectors                           210937.5      211200      210900
 PW_GRID|   G-Rays                                 703.1         704         703
 PW_GRID|   Real Space Points                   210937.5      270000      180000

 PW_GRID| Information for grid number                                          2
 PW_GRID| Number of the reference grid                                         1
 PW_GRID| Grid distributed over                                   128 processors
 PW_GRID| Real space group dimensions                                   128    1
 PW_GRID| the grid is blocked:                                                NO
 PW_GRID| Cutoff [a.u.]                                                    600.0
 PW_GRID| spherical cutoff:                                                   NO
 PW_GRID|   Bounds   1           -108     107                Points:         216
 PW_GRID|   Bounds   2           -108     107                Points:         216
 PW_GRID|   Bounds   3           -108     107                Points:         216
 PW_GRID| Volume element (a.u.^3)  0.6696E-03     Volume (a.u.^3)      6748.3346
 PW_GRID| Grid span                                                    FULLSPACE
 PW_GRID|   Distribution                         Average         Max         Min
 PW_GRID|   G-Vectors                            78732.0       79056       78408
 PW_GRID|   G-Rays                                 364.5         366         363
 PW_GRID|   Real Space Points                    78732.0       93312       46656

 PW_GRID| Information for grid number                                          3
 PW_GRID| Number of the reference grid                                         2
 PW_GRID| Grid distributed over                                   128 processors
 PW_GRID| Real space group dimensions                                     8   16
 PW_GRID| the grid is blocked:                                                NO
 PW_GRID| Cutoff [a.u.]                                                    200.0
 PW_GRID| spherical cutoff:                                                   NO
 PW_GRID|   Bounds   1            -62      62                Points:         125
 PW_GRID|   Bounds   2            -62      62                Points:         125
 PW_GRID|   Bounds   3            -62      62                Points:         125
 PW_GRID| Volume element (a.u.^3)  0.3455E-02     Volume (a.u.^3)      6748.3346
 PW_GRID| Grid span                                                    FULLSPACE
 PW_GRID|   Distribution                         Average         Max         Min
 PW_GRID|   G-Vectors                            15258.8       15875       14750
 PW_GRID|   G-Rays                                 122.1         127         118
 PW_GRID|   Real Space Points                    15258.8       16000       13125

 PW_GRID| Information for grid number                                          4
 PW_GRID| Number of the reference grid                                         2
 PW_GRID| Grid distributed over                                   128 processors
 PW_GRID| Real space group dimensions                                     8   16
 PW_GRID| the grid is blocked:                                                NO
 PW_GRID| Cutoff [a.u.]                                                     66.7
 PW_GRID| spherical cutoff:                                                   NO
 PW_GRID|   Bounds   1            -36      35                Points:          72
 PW_GRID|   Bounds   2            -36      35                Points:          72
 PW_GRID|   Bounds   3            -36      35                Points:          72
 PW_GRID| Volume element (a.u.^3)  0.1808E-01     Volume (a.u.^3)      6748.3346
 PW_GRID| Grid span                                                    FULLSPACE
 PW_GRID|   Distribution                         Average         Max         Min
 PW_GRID|   G-Vectors                             2916.0        2952        2880
 PW_GRID|   G-Rays                                  40.5          41          40
 PW_GRID|   Real Space Points                     2916.0        3240        2592

 PW_GRID| Information for grid number                                          5
 PW_GRID| Number of the reference grid                                         2
 PW_GRID| Grid distributed over                                   128 processors
 PW_GRID| Real space group dimensions                                     8   16
 PW_GRID| the grid is blocked:                                                NO
 PW_GRID| Cutoff [a.u.]                                                     22.2
 PW_GRID| spherical cutoff:                                                   NO
 PW_GRID|   Bounds   1            -22      22                Points:          45
 PW_GRID|   Bounds   2            -22      22                Points:          45
 PW_GRID|   Bounds   3            -22      22                Points:          45
 PW_GRID| Volume element (a.u.^3)  0.7406E-01     Volume (a.u.^3)      6748.3346
 PW_GRID| Grid span                                                    FULLSPACE
 PW_GRID|   Distribution                         Average         Max         Min
 PW_GRID|   G-Vectors                              711.9         810         630
 PW_GRID|   G-Rays                                  15.8          18          14
 PW_GRID|   Real Space Points                      711.9         810         450

 PW_GRID| Information for grid number                                          6
 PW_GRID| Number of the reference grid                                         2
 PW_GRID| Grid distributed over                                   128 processors
 PW_GRID| Real space group dimensions                                     8   16
 PW_GRID| the grid is blocked:                                                NO
 PW_GRID| Cutoff [a.u.]                                                      7.4
 PW_GRID| spherical cutoff:                                                   NO
 PW_GRID|   Bounds   1            -12      11                Points:          24
 PW_GRID|   Bounds   2            -12      11                Points:          24
 PW_GRID|   Bounds   3            -12      11                Points:          24
 PW_GRID| Volume element (a.u.^3)  0.4882         Volume (a.u.^3)      6748.3346
 PW_GRID| Grid span                                                    FULLSPACE
 PW_GRID|   Distribution                         Average         Max         Min
 PW_GRID|   G-Vectors                              108.0         120          96
 PW_GRID|   G-Rays                                   4.5           5           4
 PW_GRID|   Real Space Points                      108.0         144          72

 POISSON| Solver                                          Martyna-Tuckerman (MT)
 POISSON| MT| Alpha                                                        7.000
 POISSON| MT| Relative cutoff                                                2.0
 POISSON| Periodicity                                                       NONE

 RS_GRID| Information for grid number                                          2
 RS_GRID|   Bounds   1           -108     107                Points:         216
 RS_GRID|   Bounds   2           -108     107                Points:         216
 RS_GRID|   Bounds   3           -108     107                Points:         216
 RS_GRID| Real space distribution over                                  4 groups
 RS_GRID| Real space distribution along direction                              1
 RS_GRID| Border size                                                         37
 RS_GRID| Real space distribution over                                  4 groups
 RS_GRID| Real space distribution along direction                              2
 RS_GRID| Border size                                                         37
 RS_GRID| Real space distribution over                                  8 groups
 RS_GRID| Real space distribution along direction                              3
 RS_GRID| Border size                                                         37
 RS_GRID|   Distribution                         Average         Max         Min
 RS_GRID|   Planes                                 128.0         128         128
 RS_GRID|   Distribution                         Average         Max         Min
 RS_GRID|   Planes                                 128.0         128         128
 RS_GRID|   Distribution                         Average         Max         Min
 RS_GRID|   Planes                                 101.0         101         101

 RS_GRID| Information for grid number                                          3
 RS_GRID|   Bounds   1            -62      62                Points:         125
 RS_GRID|   Bounds   2            -62      62                Points:         125
 RS_GRID|   Bounds   3            -62      62                Points:         125
 RS_GRID| Real space distribution over                                  4 groups
 RS_GRID| Real space distribution along direction                              1
 RS_GRID| Border size                                                         36
 RS_GRID| Real space distribution over                                  4 groups
 RS_GRID| Real space distribution along direction                              2
 RS_GRID| Border size                                                         36
 RS_GRID| Real space distribution over                                  8 groups
 RS_GRID| Real space distribution along direction                              3
 RS_GRID| Border size                                                         36
 RS_GRID|   Distribution                         Average         Max         Min
 RS_GRID|   Planes                                 103.2         104         103
 RS_GRID|   Distribution                         Average         Max         Min
 RS_GRID|   Planes                                 103.2         104         103
 RS_GRID|   Distribution                         Average         Max         Min
 RS_GRID|   Planes                                  87.6          88          87

 RS_GRID| Information for grid number                                          4
 RS_GRID|   Bounds   1            -36      35                Points:          72
 RS_GRID|   Bounds   2            -36      35                Points:          72
 RS_GRID|   Bounds   3            -36      35                Points:          72
 RS_GRID| Real space fully replicated
 RS_GRID| Group size                                                           1

 RS_GRID| Information for grid number                                          5
 RS_GRID|   Bounds   1            -22      22                Points:          45
 RS_GRID|   Bounds   2            -22      22                Points:          45
 RS_GRID|   Bounds   3            -22      22                Points:          45
 RS_GRID| Real space fully replicated
 RS_GRID| Group size                                                           1

 RS_GRID| Information for grid number                                          6
 RS_GRID|   Bounds   1            -12      11                Points:          24
 RS_GRID|   Bounds   2            -12      11                Points:          24
 RS_GRID|   Bounds   3            -12      11                Points:          24
 RS_GRID| Real space fully replicated
 RS_GRID| Group size                                                           1

  HFX_INFO| Replica ID:                                                        1
  HFX_INFO| FRACTION:                                               0.2500000000
  HFX_INFO| Interaction Potential:                                       COULOMB
  HFX_INFO| EPS_SCHWARZ:                                                 1.0E-10
  HFX_INFO| EPS_SCHWARZ_FORCES                                           1.0E-06
  HFX_INFO| EPS_STORAGE_SCALING:                                         1.0E+00
  HFX_INFO| NBINS:                                                            64
  HFX_INFO| BLOCK_SIZE:                                                        1
  HFX_INFO| Number of periodic shells considered:                           NONE
  HFX_INFO| Number of periodic cells considered:                            NONE


 Number of electrons:                                                         32
 Number of occupied orbitals:                                                 16
 Number of molecular orbitals:                                                16

 Number of orbital functions:                                                181
 Number of independent orbital functions:                                    181

 Extrapolation method: initial_guess


 SCF WAVEFUNCTION OPTIMIZATION

  ----------------------------------- OT ---------------------------------------
  Minimizer      : DIIS                : direct inversion
                                         in the iterative subspace
                                         using   7 DIIS vectors
                                         safer DIIS on
  Preconditioner : FULL_ALL            : diagonalization, state selective
  Precond_solver : DEFAULT
  stepsize       :    0.15000000                  energy_gap     :    0.08000000
  eps_taylor     :   0.10000E-15                  max_taylor     :             4
  ----------------------------------- OT ---------------------------------------

  Step     Update method      Time    Convergence         Total energy    Change
  ------------------------------------------------------------------------------

  HFX_MEM_INFO| Est. max. program size before HFX [MiB]:                     488
  HFX_MEM_INFO| Number of cart. primitive ERI's calculated:            897089710
  HFX_MEM_INFO| Number of sph. ERI's calculated:                       199968270
  HFX_MEM_INFO| Number of sph. ERI's stored in-core:                   199968270
  HFX_MEM_INFO| Number of sph. ERI's stored on disk:                           0
  HFX_MEM_INFO| Number of sph. ERI's calculated on the fly:                    0
  HFX_MEM_INFO| Total memory consumption ERI's RAM [MiB]:                    593
  HFX_MEM_INFO| Whereof max-vals [MiB]:                                        4
  HFX_MEM_INFO| Total compression factor ERI's RAM:                         2.57
  HFX_MEM_INFO| Total memory consumption ERI's disk [MiB]:                     0
  HFX_MEM_INFO| Total compression factor ERI's disk:                        0.00
  HFX_MEM_INFO| Size of density/Fock matrix [MiB]:                             0
  HFX_MEM_INFO| Size of buffers [MiB]:                                         1
  HFX_MEM_INFO| Est. max. program size after HFX  [MiB]:                     864

     1 OT DIIS     0.15E+00   43.3     2.5898E-09      -244.8535850056 -2.45E+02

  *** SCF run converged in     1 steps ***


  Electronic density on regular grids:        -23.1432375443        8.8567624557
  Core density on regular grids:               32.0000000000       -0.0000000000
  Hard and soft densities (Lebedev):          -75.8058229977      -66.9490638051
  Total Rho_soft + Rho1_hard - Rho1_soft      -31.9999967369
  Total charge density (r-space):               0.0000032631
  Total Rho_soft + Rho0_soft (g-space):         0.0000033246

  Overlap energy of the core charge distribution:               0.00000294903454
  Self energy of the core charge distribution:               -226.96398569458105
  Core Hamiltonian energy:                                    -26.15296288699523
  Hartree energy:                                              66.25221626471642
  Exchange-correlation energy:                                 -8.77416953905873
  Hartree-Fock Exchange energy:                                -7.29064068020135

  GAPW| Exc from hard and soft atomic rho1:                   -14.21184731847125
  GAPW| local Eh = 1 center integrals:                        -27.71219810009146

  Total energy:                                              -244.85358500564814

  outer SCF iter =    1 RMS gradient =   0.26E-08 energy =       -244.8535850056
  outer SCF loop converged in   1 iterations or    1 steps


 !-----------------------------------------------------------------------------!
                     Mulliken Population Analysis

 #  Atom  Element  Kind  Atomic population                           Net charge
       1     N        1          6.205712                              0.794288
       2     O        2          8.447035                             -0.447035
       3     O        2          8.452000                             -0.452000
       4     C        3          6.697255                             -0.697255
       5     H        4          0.733641                              0.266359
       6     H        4          0.732178                              0.267822
       7     H        4          0.732178                              0.267822
 # Total charge                             32.000000                  0.000000

 !-----------------------------------------------------------------------------!

 !-----------------------------------------------------------------------------!
                           Hirshfeld Charges

  #Atom  Element  Kind  Ref Charge     Population                    Net charge
      1       N      1       7.000          6.612                         0.388
      2       O      2       8.000          8.342                        -0.342
      3       O      2       8.000          8.339                        -0.339
      4       C      3       6.000          7.193                        -1.193
      5       H      4       1.000          0.503                         0.497
      6       H      4       1.000          0.502                         0.498
      7       H      4       1.000          0.502                         0.498

  Total Charge                                                            0.006
 !-----------------------------------------------------------------------------!

 *******************************************************************************
 **                                                                           **
 **         ######## #######   #######   ######## #######  ########           **
 **            ##    ##     ## ##     ## ##       ##   ##     ##              **
 **            ##    ##     ## ##     ## ######   #######     ##              **
 **            ##    ##     ## ##     ## ##       ##          ##              **
 **            ##    #######   #######   ##       ##          ##              **
 **                                                                           **
 *******************************************************************************
 KERNEL|                                                                    FULL
 FUNCTIONAL| PBE:
 FUNCTIONAL| J.P.Perdew, K.Burke, M.Ernzerhof, Phys. Rev. Letter, vol. 77, n 18,
 FUNCTIONAL|  pp. 3865-3868, (1996)sx=0.750sc=1.000{spin unpolarized}           
 KERNEL|                                                          Exact Exchange
 KERNEL| Spin symmetry of excitations                                    Triplet
 TDDFPT| Number of states calculated                                          10
 TDDFPT| Number of Davidson iterations                                        20
 TDDFPT| Davidson iteration convergence                                0.100E-07
 TDDFPT| Max. number of Krylov space vectors                                  60
 TDDFPT| Molecular Orbitals:        Spin       AOs       Occ      Virt     Total
 TDDFPT|                               1       181        16       165       181

 *******************************************************************************
 **                                                                           **
 **                            ####### ####### #######                        **
 **                        #   ##      ##   ## ##                             **
 **                       ###  ######  ##   ## ##                             **
 **                        #       ##  ##   ## ##                             **
 **                            ######  ####### #######                        **
 **                 Based on the xas module from Augustin Bussy               **
 *******************************************************************************
 
 -------------------------------------------------------------------------------
 -                      TDDFPT TRIPLET ENERGIES                                 -
 -------------------------------------------------------------------------------
 
 -------------------------------------------------------------------------------
 -                            TDDFPT Initial Guess                             -
 -------------------------------------------------------------------------------
          State         Occupied      ->      Virtual          Excitation
          number         orbital              orbital          energy (eV)
 -------------------------------------------------------------------------------
             1               16                   17              6.73502
             2               15                   17              7.03879
             3               14                   17              7.24306
             4               16                   18              9.03066
             5               15                   18              9.33443
             6               14                   18              9.53870
             7               16                   19             10.28362
             8               13                   17             10.31421
             9               16                   20             10.53593
            10               15                   19             10.58739

      Number of active states:                                       2640
 -------------------------------------------------------------------------------
 
 -------------------------------------------------------------------------------
 -                      TDDFPT WAVEFUNCTION OPTIMIZATION                       -
 -------------------------------------------------------------------------------

          Step            Time         Convergence           Conv. states
 -------------------------------------------------------------------------------

    State    Exc. energy (eV)      Convergence (eV)
        1       3.7523763            -2.9826E+00
        2       3.7849706            -3.2538E+00
        3       4.1438669            -3.0992E+00
        4       7.8579110            -1.1727E+00
        5       8.1037286            -1.2307E+00
        6       8.1727702            -1.3659E+00
        7       8.4043166            -1.8793E+00
        8       8.9813336            -1.3329E+00
        9       9.1371587            -1.3988E+00
       10       9.4147665            -1.1726E+00
 
             1           174.0          1.1958E-01                      0

    State    Exc. energy (eV)      Convergence (eV)
        1       3.5832440            -1.6913E-01
        2       3.6616607            -1.2331E-01
        3       4.0450134            -9.8854E-02
        4       7.7433213            -1.1459E-01
        5       7.7901582            -3.1357E-01
        6       8.0431922            -1.2958E-01
        7       8.3180462            -8.6270E-02
        8       8.8613154            -1.2002E-01
        9       8.9110706            -2.2609E-01
       10       9.3280890            -8.6678E-02
 
             2           175.5          1.1523E-02                      0

    State    Exc. energy (eV)      Convergence (eV)
        1       3.5822507            -9.9325E-04
        2       3.6608545            -8.0625E-04
        3       4.0442941            -7.1927E-04
        4       7.7108752            -3.2446E-02
        5       7.7858351            -4.3231E-03
        6       8.0393613            -3.8309E-03
        7       8.3142581            -3.7881E-03
        8       8.8473348            -1.3981E-02
        9       8.8767872            -3.4283E-02
       10       9.3155319            -1.2557E-02
 
             3           186.4          1.2599E-03                      0

[...]
 flops     9 x    37 x    16              9014976       0.0%    100.0%      0.0%
 flops    37 x     9 x    16              9014976       0.0%    100.0%      0.0%
 flops     9 x    40 x    16              9745920       0.0%    100.0%      0.0%
 flops    40 x     9 x    16              9745920       0.0%    100.0%      0.0%
 flops     9 x    16 x     9             24354432       0.0%    100.0%      0.0%
 flops    37 x    40 x    16             26711040       0.0%    100.0%      0.0%
 flops    40 x    37 x    16             26711040       0.0%    100.0%      0.0%
 flops    16 x    16 x     9             27717120       0.0%    100.0%      0.0%
 flops    37 x    37 x    16             37061568       0.0%    100.0%      0.0%
 flops    40 x    40 x    16             43315200       0.0%    100.0%      0.0%
 flops     9 x    16 x    37             65406528       0.0%    100.0%      0.0%
 flops    37 x    16 x     9             65406528       0.0%    100.0%      0.0%
 flops    40 x    16 x     9             70433280       0.0%    100.0%      0.0%
 flops     9 x    16 x    40             70433280       0.0%    100.0%      0.0%
 flops    16 x    16 x    37             75965440       0.0%    100.0%      0.0%
 flops    16 x    16 x    40             81920000       0.0%    100.0%      0.0%
 flops    37 x    16 x    37            184782144       0.0%    100.0%      0.0%
 flops    40 x    16 x    37            193039360       0.0%    100.0%      0.0%
 flops    37 x    16 x    40            193039360       0.0%    100.0%      0.0%
 flops    40 x    16 x    40            215142400       0.0%    100.0%      0.0%
 flops inhomo. stacks                     2058240     100.0%      0.0%      0.0%
 flops total                         1.479436E+09       0.1%     99.9%      0.0%
 flops max/rank                    427.389952E+06       0.2%     99.8%      0.0%
 matmuls inhomo. stacks                        58     100.0%      0.0%      0.0%
 matmuls total                              73390       0.1%     99.9%      0.0%
 number of processed stacks                 65849       0.1%     99.9%      0.0%
 average stack size                                     1.0       1.1       0.0
 marketing flops                     1.653021E+09
 -------------------------------------------------------------------------------
 # multiplications                           1224
 max memory usage/rank               1.322766E+09
 # max total images/rank                        2
 # max 3D layers                                1
 # MPI messages exchanged                 4543488
 MPI messages size (bytes):
  total size                         3.976442E+09
  min size                           0.000000E+00
  max size                          25.600000E+03
  average size                     875.195862E+00
 MPI breakdown and total messages size (bytes):
             size <=      128             3854275                        0
       128 < size <=     8192              519533               1336670320
      8192 < size <=    32768              169680               2639771760
     32768 < size <=   131072                   0                        0
    131072 < size <=  4194304                   0                        0
   4194304 < size <= 16777216                   0                        0
  16777216 < size                               0                        0
 -------------------------------------------------------------------------------

 *** WARNING in dbcsr_mm.F:291 :: Using a non-square number of MPI ranks ***
 *** might lead to poor performance. Used ranks: 128 Suggested: 121 256  ***

 -------------------------------------------------------------------------------
 -                                                                             -
 -                      DBCSR MESSAGE PASSING PERFORMANCE                      -
 -                                                                             -
 -------------------------------------------------------------------------------
 ROUTINE             CALLS      AVE VOLUME [Bytes]
 MP_Bcast               46                     12.
 MP_Allreduce         4707                      8.
 MP_Alltoall         26675                  39793.
 MP_ISend            76342                   1928.
 MP_IRecv            75808                   1602.
 -------------------------------------------------------------------------------

 -------------------------------------------------------------------------------
 -                                                                             -
 -                                DBM STATISTICS                               -
 -                                                                             -
 -------------------------------------------------------------------------------
    M  x    N  x    K                                          COUNT     PERCENT
 -------------------------------------------------------------------------------

 -------------------------------------------------------------------------------
 -                                                                             -
 -                                GRID STATISTICS                              -
 -                                                                             -
 -------------------------------------------------------------------------------
 LP    KERNEL             BACKEND                              COUNT     PERCENT
 1     collocate ortho    CPU                                 108432      12.16%
 1     integrate ortho    CPU                                 106173      11.91%
 2     collocate ortho    CPU                                  99216      11.13%
 2     integrate ortho    CPU                                  97149      10.90%
 0     collocate ortho    CPU                                  74016       8.30%
 0     integrate ortho    CPU                                  72474       8.13%
 2     collocate general  CPU                                  65408       7.34%
 3     collocate ortho    CPU                                  64656       7.25%
 2     integrate general  CPU                                  63616       7.14%
 3     integrate ortho    CPU                                  63309       7.10%
 4     collocate ortho    CPU                                  27936       3.13%
 4     integrate ortho    CPU                                  27354       3.07%
 5     collocate ortho    CPU                                   8640       0.97%
 5     integrate ortho    CPU                                   8460       0.95%
 6     collocate ortho    CPU                                   1440       0.16%
 6     integrate ortho    CPU                                   1410       0.16%
 0     collocate general  CPU                                    896       0.10%
 0     integrate general  CPU                                    896       0.10%
 -------------------------------------------------------------------------------

 MEMORY| Estimated peak process memory [MiB]                                1262

 -------------------------------------------------------------------------------
 ----                             MULTIGRID INFO                            ----
 -------------------------------------------------------------------------------
 count for grid        1:        2326125          cutoff [a.u.]          600.00
 count for grid        2:         443671          cutoff [a.u.]          200.00
 count for grid        3:         502198          cutoff [a.u.]           66.67
 count for grid        4:         233448          cutoff [a.u.]           22.22
 count for grid        5:          50005          cutoff [a.u.]            7.41
 total gridlevel count  :        3555447

 -------------------------------------------------------------------------------
 -                                                                             -
 -                         MESSAGE PASSING PERFORMANCE                         -
 -                                                                             -
 -------------------------------------------------------------------------------

 ROUTINE             CALLS      AVE VOLUME [Bytes]
 MP_Group                6
 MP_Bcast             2244                 313007.
 MP_Allreduce         8391                  16250.
 MP_Sync              2041
 MP_Alltoall          4083                2624902.
 MP_SendRecv         54864                  11184.
 MP_ISendRecv       125349                  19374.
 MP_Wait            156508
 MP_comm_split          58
 MP_ISend            34070                 232106.
 MP_IRecv            36684                 215599.
 -------------------------------------------------------------------------------


 -------------------------------------------------------------------------------
 -                                                                             -
 -                           R E F E R E N C E S                               -
 -                                                                             -
 -------------------------------------------------------------------------------
 
 CP2K version 2023.2 (Development Version), the CP2K developers group (2023).
 CP2K is freely available from https://www.cp2k.org/ .

 Kuehne,Thomas D.; Iannuzzi,Marcella; Del Ben,Mauro;
 Rybkin,Vladimir V.; Seewald,Patrick; Stein,Frederick; Laino,Teodoro;
 Khaliullin,Rustam Z.; Schuett,Ole; Schiffmann,Florian; Golze,Dorothea;
 Wilhelm,Jan; Chulkov,Sergey; Bani-Hashemian,Mohammad Hossein;
 Weber,Valery; Borstnik,Urban; Taillefumier,Mathieu;
 Jakobovits,Alice Shoshana; Lazzaro,Alfio; Pabst,Hans; Mueller,Tiziano;
 Schade,Robert; Guidon,Manuel; Andermatt,Samuel; Holmberg,Nico;
 Schenter,Gregory K.; Hehn,Anna; Bussy,Augustin; Belleflamme,Fabian;
 Tabacchi,Gloria; Gloess,Andreas; Lass,Michael; Bethune,Iain;
 Mundy,Christopher J.; Plessl,Christian; Watkins,Matt;
 VandeVondele,Joost; Krack,Matthias; Hutter,Juerg. 
 The Journal of Chemical Physics, 152 (19), (2020). 
 CP2K: An electronic structure and molecular dynamics software package -
 Quickstep: Efficient and accurate electronic structure calculations.
 https://doi.org/10.1063/5.0007045

 Schuett, Ole; Messmer, Peter; Hutter, Juerg; VandeVondele, Joost. 
 Electronic Structure Calculations on Graphics Processing Units, John
 Wiley & Sons, Ltd, 173-190 (2016). 
 GPU-Accelerated Sparse Matrix-Matrix Multiplication for
 Linear Scaling Density Functional Theory.
 https://doi.org/10.1002/9781118670712.ch8

 Heinecke, A; Henry, G; Hutchinson, M; Pabst, H. 
 Proceedings of Intl. Supercomputing Conference, 981-991 (2016). 
 LIBXSMM: Accelerating Small Matrix Multiplications
 by Runtime Code Generation.
 https://doi.org/10.1109/SC.2016.83

 Borstnik, U; VandeVondele, J; Weber, V; Hutter, J. 
 PARALLEL COMPUTING, 40 (5-6), 47-58 (2014). 
 Sparse matrix multiplication: The distributed block-compressed sparse
 row library.
 https://doi.org/10.1016/j.parco.2014.03.012

 Hutter, J; Iannuzzi, M; Schiffmann, F; VandeVondele, J. 
 WIREs Comput Mol Sci., 4 (1), 15-25 (2014). 
 CP2K: atomistic simulations of condensed matter systems.
 https://doi.org/10.1002/wcms.1159

 Guidon, M; Hutter, J; VandeVondele, J. 
 JOURNAL OF CHEMICAL THEORY AND COMPUTATION, 5 (11), 3010-3021 (2009). 
 Robust Periodic Hartree-Fock Exchange for Large-Scale Simulations Using
 Gaussian Basis Sets.
 https://doi.org/10.1021/ct900494g

 Guidon, M; Schiffmann, F; Hutter, J; VandeVondele, J. 
 JOURNAL OF CHEMICAL PHYSICS, 128 (21), 214104 (2008). 
 Ab initio molecular dynamics using hybrid density functionals.
 https://doi.org/10.1063/1.2931945

 Frigo, M; Johnson, SG. 
 PROCEEDINGS OF THE IEEE, 93 (2), 216-231 (2005). 
 The design and implementation of FFTW3.
 https://doi.org/10.1109/JPROC.2004.840301

 Iannuzzi, M; Chassaing, T; Wallman, T; Hutter, J. 
 CHIMIA, 59 (7-8), 499-503 (2005). 
 Ground and excited state density functional calculations with the
 Gaussian and augmented-plane-wave method.
 https://doi.org/10.2533/000942905777676164

 VandeVondele, J; Hutter, J. 
 JOURNAL OF CHEMICAL PHYSICS, 118 (10), 4365-4369 (2003). 
 An efficient orbital transformation method for electronic structure
 calculations.
 https://doi.org/10.1063/1.1543154

 Martin,Richard L.. 
 The Journal of Chemical Physics, 118 (11), 4775-4777 (2003). 
 Natural transition orbitals.
 https://doi.org/10.1063/1.1558471

 Lippert, G; Hutter, J; Parrinello, M. 
 THEORETICAL CHEMISTRY ACCOUNTS, 103 (2), 124-140 (1999). 
 The Gaussian and augmented-plane-wave density functional method for ab
 initio molecular dynamics simulations.
 https://doi.org/10.1007/s002140050523

 Krack, M; Parrinello, M. 
 PHYSICAL CHEMISTRY CHEMICAL PHYSICS, 2 (10), 2105-2112 (2000). 
 All-electron ab-initio molecular dynamics.
 https://doi.org/10.1039/b001167n

 Martyna, GJ; Tuckerman, ME. 
 JOURNAL OF CHEMICAL PHYSICS, 110 (6), 2810-2821 (1999). 
 A reciprocal space based method for treating long range interactions in
 ab initio and force-field-based calculations in clusters.
 https://doi.org/10.1063/1.477923

 Perdew, JP; Burke, K; Ernzerhof, M. 
 PHYSICAL REVIEW LETTERS, 77 (18), 3865-3868 (1996). 
 Generalized gradient approximation made simple.
 https://doi.org/10.1103/PhysRevLett.77.3865


 -------------------------------------------------------------------------------
 -                                                                             -
 -                                T I M I N G                                  -
 -                                                                             -
 -------------------------------------------------------------------------------
 SUBROUTINE                       CALLS  ASD         SELF TIME        TOTAL TIME
                                MAXIMUM       AVERAGE  MAXIMUM  AVERAGE  MAXIMUM
 CP2K                                 1  1.0    0.073    0.136 2687.066 2687.071
 qs_energies                          1  2.0    0.000    0.007 2685.609 2685.630
 qs_energies_properties               1  3.0    0.000    0.020 2631.212 2631.238
 tddfpt                               1  4.0    0.003    0.014 2631.212 2631.238
 tddfpt_soc_energies                  1  5.0    0.000    0.000 2622.534 2622.561
 tddfpt_energies                      2  6.0    0.000    0.001 2570.763 2570.778
 tddfpt_davidson_solver               4  7.0    0.006    0.039 2451.201 2451.223
 tddfpt_compute_Aop_evects           14  8.0    0.000    0.010 1961.677 1961.789
 cp_dbcsr_sm_fm_multiply            880  9.5    0.012    0.023 1189.442 1191.788
 fhxc_kernel                         14  9.0    0.005    0.017 1139.646 1139.752
 dbcsr_multiply_generic            1224 11.3    0.082    0.129  787.180  804.151
 tddfpt_apply_hfx                    14  9.0    0.002    0.014  619.296  619.407
 dbcsr_complete_redistribute       2801 11.5    0.143    0.986  580.784  596.043
 cp_dbcsr_sm_fm_multiply_core       880 10.5    0.002    0.012  516.515  531.602
 multiply_cannon                   1224 12.3    3.297    3.784  485.079  505.232
 multiply_cannon_loop              1224 13.3    0.639    0.858  431.032  449.762
 copy_dbcsr_to_fm                   924 10.4    0.008    0.019  432.843  444.603
 pw_transfer                       3138 12.5    0.094    0.129  386.196  387.989
 fft_wrap_pw1pw2                   2923 13.6    0.009    0.019  385.862  387.679
 fft3d_ps                          2923 15.6    8.145    9.285  383.349  385.548
 copy_fm_to_dbcsr                  1873 10.6    0.005    0.023  370.532  383.036
 multiply_cannon_multrec          19584 14.3  339.949  375.675  339.954  375.679
 tddfpt_orthonormalize_psi1_psi      16  7.9    0.007    0.036  371.361  371.451
 mp_alltoall_i22                   3725 12.5  269.980  285.314  269.980  285.314
 cp_dbcsr_plus_fm_fm_t_native       141 10.0    0.002    0.013  280.264  283.107
 mp_alltoall_d11v                 11460 12.8  246.842  279.491  246.842  279.491
 mp_waitall_1                    267442 14.5  223.782  261.908  223.782  261.908
 qs_rho_update_rho_low              144  9.9    0.005    0.049  256.926  260.055
 mp_alltoall_z22v                  2923 17.6  231.449  236.416  231.449  236.416
 dbcsr_desymmetrize_deep            924 11.4    0.015    0.086  222.564  234.720
 calculate_rho_elec                 144 10.9    0.034    0.059  225.195  228.389
 fft_wrap_pw1pw2_600               1782 14.6    1.179    1.522  211.325  213.106
 tddfpt_apply_energy_diff            14  9.0    0.001    0.001  202.735  202.803
 integrate_v_rspace                 141 10.0    0.003    0.027  193.409  195.898
 density_rs2pw                      144 11.9    0.006    0.020  192.069  193.924
 potential_pw2rs                    141 11.0    0.006    0.036  185.612  186.075
 mp_sum_l                          4706 11.3  178.202  183.430  178.202  183.430
 cp_fm_trace_a1b1t1_aa             3880  9.0    8.145   11.005  167.398  167.861
 mp_sum_dv                         4178 10.0  162.225  165.632  162.225  165.632
 mp_alltoall_i11v                  9327 12.5  157.577  161.526  157.577  161.526
 integrate_four_center              281 11.0    4.887   11.486  151.524  153.109
 tddfpt_apply_xc_analytic           140 10.0    0.084    0.115  142.944  143.384
 tddft_hfx_matrix                   280 10.0    0.009    0.020  140.085  141.665
 tddfpt_compute_residual_vects       10  8.0    0.000    0.001  132.829  132.859
 xc_pw_derive                      1065 11.8    0.005    0.019  124.017  125.302
 x_to_yz                            998 16.2    3.186    3.603  110.394  111.585
 make_m2s                          2448 12.3    0.021    0.043   99.356  110.813
 make_images                       2448 13.3    6.844    7.552   98.470  108.355
 multiply_cannon_metrocomm3       19584 14.3    0.032    0.065   74.201  108.131
 mp_alltoall_z11v                   855 17.5  103.254  104.753  103.254  104.753
 mp_cart_sub                       1858 12.4   93.071   97.547   93.071   97.547
 yz_to_x                            785 17.2    0.204    0.276   92.732   94.723
 make_images_sizes                 2448 14.3    0.003    0.024   88.688   91.589
 mp_alltoall_i44                   2448 15.3   88.684   91.587   88.684   91.587
 transfer_pw2rs                     777 12.0    0.003    0.015   83.968   84.671
 transfer_rs2pw                     794 12.8    0.005    0.015   81.797   83.503
 mp_sync                           2041 14.0   71.053   77.631   71.053   77.631
 mp_waitany                       23510 14.3   73.901   77.198   73.901   77.198
 xc_calc_2nd_deriv_analytical       980 11.1    2.878    3.783   71.594   72.695
 tddfpt_print_nto_analysis            2  7.0    0.003    0.015   72.314   72.322
 xz_to_yz                           576 16.9    1.507    1.742   69.514   70.747
 xc_pw_divergence                   141 12.0    0.002    0.015   68.351   69.550
 yz_to_xz                           564 16.0    1.478    1.773   68.632   69.515
 mp_cart_create                     933 12.4   60.171   65.157   60.171   65.157
 integrate_four_center_getP         281 12.0    0.044    0.075   63.919   65.038
 hybrid_alltoall_any               3372 14.5    0.022    0.160   56.492   61.706
 mp_allgather_i34                  1224 13.3   49.399   54.424   49.399   54.424
 -------------------------------------------------------------------------------

 The number of warnings for this run is : 3
 
 -------------------------------------------------------------------------------
  **** **** ******  **  PROGRAM ENDED AT                 2023-12-06 14:50:40.918
 ***** ** ***  *** **   PROGRAM RAN ON                               nesh-srp134
 **    ****   ******    PROGRAM RAN BY                                  suphc355
 ***** **    ** ** **   PROGRAM PROCESS ID                               1989377
  **** **  *******  **  PROGRAM STOPPED IN /gxfs_work/cau/suphc355/benchmark_pbe
                                           0/pbe0_bm_ae/nitromethan
