 DBCSR| CPU Multiplication driver                                           XSMM (U)
 DBCSR| Multrec recursion limit                                              512 (U)
 DBCSR| Multiplication stack size                                           1000 (D)
 DBCSR| Maximum elements for images                                    UNLIMITED (U)
 DBCSR| Multiplicative factor virtual images                                   1 (U)
 DBCSR| Use multiplication densification                                       T (D)
 DBCSR| Multiplication size stacks                                             3 (U)
 DBCSR| Use memory pool for CPU allocation                                     F (U)
 DBCSR| Number of 3D layers                                               SINGLE (U)
 DBCSR| Use MPI memory allocation                                              F (U)
 DBCSR| Use RMA algorithm                                                      F (U)
 DBCSR| Use Communication thread                                               T (U)
 DBCSR| Communication thread load                                             83 (D)
 DBCSR| MPI: My process id                                                     0
 DBCSR| MPI: Number of processes                                             128
 DBCSR| OMP: Current number of threads                                         2
 DBCSR| OMP: Max number of threads                                             2
 DBCSR| Split modifier for TAS multiplication algorithm                  1.0E+00 (U)


  **** **** ******  **  PROGRAM STARTED AT               2023-10-05 14:38:51.031
 ***** ** ***  *** **   PROGRAM STARTED ON                                  n106
 **    ****   ******    PROGRAM STARTED BY                              suphc355
 ***** **    ** ** **   PROGRAM PROCESS ID                               1361147
  **** **  *******  **  PROGRAM STARTED IN /work_beegfs/suphc355/pbe0_bm_final/d
                                           ithiin/cp2k

 CP2K| version string:                 CP2K version 2023.1 (Development Version)
 CP2K| source code revision number:                                  git:593de28
 CP2K| cp2kflags: omp libint fftw3 libxc parallel mpi_f08 scalapack cosma xsmm s
 CP2K|            pglib libvori libbqb
 CP2K| is freely available from                            https://www.cp2k.org/
 CP2K| Program compiled at                         Thu Jul 20 10:39:14 CEST 2023
 CP2K| Program compiled on                                           caucluster2
 CP2K| Program compiled for                                                local
 CP2K| Data directory path              /zfshome/suphc355/software/cp2k_dev/data
 CP2K| Input file name                                                   les.inp
 
 GLOBAL| Force Environment number                                              1
 GLOBAL| Basis set file name                                     EMSL_BASIS_SETS
 GLOBAL| Potential file name                                           POTENTIAL
 GLOBAL| MM Potential file name                                     MM_POTENTIAL
 GLOBAL| Coordinate file name                                            lit.xyz
 GLOBAL| Method name                                                        CP2K
 GLOBAL| Project name                                          dithiin_less_corr
 GLOBAL| Run type                                                         ENERGY
 GLOBAL| FFT library                                                       FFTW3
 GLOBAL| Diagonalization library                                       ScaLAPACK
 GLOBAL| DGEMM library                                                      BLAS
 GLOBAL| Orthonormality check for eigenvectors                          DISABLED
 GLOBAL| Matrix multiplication library                                     COSMA
 GLOBAL| All-to-all communication in single precision                          F
 GLOBAL| FFTs using library dependent lengths                                  F
 GLOBAL| Grid backend                                                       AUTO
 GLOBAL| Global print level                                               MEDIUM
 GLOBAL| MPI I/O enabled                                                       T
 GLOBAL| Total number of message passing processes                           128
 GLOBAL| Number of threads for this process                                    2
 GLOBAL| This output is from process                                           0
 GLOBAL| Stack size for threads created by OpenMP (OMP_STACKSIZE)        default
 GLOBAL| CPU model name                          AMD EPYC 7313 16-Core Processor
 GLOBAL| CPUID                                                              1002

 MEMORY| system memory details [Kb]
 MEMORY|                        rank 0           min           max       average
 MEMORY| MemTotal            263983472     263983472     528224476     330043724
 MEMORY| MemFree             239658708     234450160     507493660     309465730
 MEMORY| Buffers               9160596       1173408      10713688       6055830
 MEMORY| Cached                2156268       1268612       4958056       3033795
 MEMORY| Slab                  3975084       1182284       7698000       3406541
 MEMORY| SReclaimable          1042472        568828       1365992        906249
 MEMORY| MemLikelyFree       252018044     250949860     519072416     319461606


 *** Fundamental physical constants (SI units) ***

 *** Literature: B. J. Mohr and B. N. Taylor,
 ***             CODATA recommended values of the fundamental physical
 ***             constants: 2006, Web Version 5.1
 ***             http://physics.nist.gov/constants

 Speed of light in vacuum [m/s]                             2.99792458000000E+08
 Magnetic constant or permeability of vacuum [N/A**2]       1.25663706143592E-06
 Electric constant or permittivity of vacuum [F/m]          8.85418781762039E-12
 Planck constant (h) [J*s]                                  6.62606896000000E-34
 Planck constant (h-bar) [J*s]                              1.05457162825177E-34
 Elementary charge [C]                                      1.60217648700000E-19
 Electron mass [kg]                                         9.10938215000000E-31
 Electron g factor [ ]                                     -2.00231930436220E+00
 Proton mass [kg]                                           1.67262163700000E-27
 Fine-structure constant                                    7.29735253760000E-03
 Rydberg constant [1/m]                                     1.09737315685270E+07
 Avogadro constant [1/mol]                                  6.02214179000000E+23
 Boltzmann constant [J/K]                                   1.38065040000000E-23
 Atomic mass unit [kg]                                      1.66053878200000E-27
 Bohr radius [m]                                            5.29177208590000E-11

 *** Conversion factors ***

 [u] -> [a.u.]                                              1.82288848426455E+03
 [Angstrom] -> [Bohr] = [a.u.]                              1.88972613288564E+00
 [a.u.] = [Bohr] -> [Angstrom]                              5.29177208590000E-01
 [a.u.] -> [s]                                              2.41888432650478E-17
 [a.u.] -> [fs]                                             2.41888432650478E-02
 [a.u.] -> [J]                                              4.35974393937059E-18
 [a.u.] -> [N]                                              8.23872205491840E-08
 [a.u.] -> [K]                                              3.15774647902944E+05
 [a.u.] -> [kJ/mol]                                         2.62549961709828E+03
 [a.u.] -> [kcal/mol]                                       6.27509468713739E+02
 [a.u.] -> [Pa]                                             2.94210107994716E+13
 [a.u.] -> [bar]                                            2.94210107994716E+08
 [a.u.] -> [atm]                                            2.90362800883016E+08
 [a.u.] -> [eV]                                             2.72113838565563E+01
 [a.u.] -> [Hz]                                             6.57968392072181E+15
 [a.u.] -> [1/cm] (wave numbers)                            2.19474631370540E+05
 [a.u./Bohr**2] -> [1/cm]                                   5.14048714338585E+03
 

 CELL_TOP| Volume [angstrom^3]:                                      1000.000000
 CELL_TOP| Vector a [angstrom    10.000     0.000     0.000   |a| =    10.000000
 CELL_TOP| Vector b [angstrom     0.000    10.000     0.000   |b| =    10.000000
 CELL_TOP| Vector c [angstrom     0.000     0.000    10.000   |c| =    10.000000
 CELL_TOP| Angle (b,c), alpha [degree]:                                90.000000
 CELL_TOP| Angle (a,c), beta  [degree]:                                90.000000
 CELL_TOP| Angle (a,b), gamma [degree]:                                90.000000
 CELL_TOP| Numerically orthorhombic:                                         YES
 CELL_TOP| Periodicity                                                      NONE

 CELL| Volume [angstrom^3]:                                          1000.000000
 CELL| Vector a [angstrom]:      10.000     0.000     0.000   |a| =    10.000000
 CELL| Vector b [angstrom]:       0.000    10.000     0.000   |b| =    10.000000
 CELL| Vector c [angstrom]:       0.000     0.000    10.000   |c| =    10.000000
 CELL| Angle (b,c), alpha [degree]:                                    90.000000
 CELL| Angle (a,c), beta  [degree]:                                    90.000000
 CELL| Angle (a,b), gamma [degree]:                                    90.000000
 CELL| Numerically orthorhombic:                                             YES
 CELL| Periodicity                                                          NONE

 CELL_REF| Volume [angstrom^3]:                                      1000.000000
 CELL_REF| Vector a [angstrom    10.000     0.000     0.000   |a| =    10.000000
 CELL_REF| Vector b [angstrom     0.000    10.000     0.000   |b| =    10.000000
 CELL_REF| Vector c [angstrom     0.000     0.000    10.000   |c| =    10.000000
 CELL_REF| Angle (b,c), alpha [degree]:                                90.000000
 CELL_REF| Angle (a,c), beta  [degree]:                                90.000000
 CELL_REF| Angle (a,b), gamma [degree]:                                90.000000
 CELL_REF| Numerically orthorhombic:                                         YES
 CELL_REF| Periodicity                                                      NONE

 *******************************************************************************
 *******************************************************************************
 **                                                                           **
 **     #####                         ##              ##                      **
 **    ##   ##            ##          ##              ##                      **
 **   ##     ##                       ##            ######                    **
 **   ##     ##  ##   ##  ##   #####  ##  ##   ####   ##    #####    #####    **
 **   ##     ##  ##   ##  ##  ##      ## ##   ##      ##   ##   ##  ##   ##   **
 **   ##  ## ##  ##   ##  ##  ##      ####     ###    ##   ######   ######    **
 **    ##  ###   ##   ##  ##  ##      ## ##      ##   ##   ##       ##        **
 **     #######   #####   ##   #####  ##  ##  ####    ##    #####   ##        **
 **           ##                                                    ##        **
 **                                                                           **
 **                                                ... make the atoms dance   **
 **                                                                           **
 **            Copyright (C) by CP2K developers group (2000-2023)             **
 **                      J. Chem. Phys. 152, 194103 (2020)                    **
 **                                                                           **
 *******************************************************************************

 DFT| Spin restricted Kohn-Sham (RKS) calculation                            RKS
 DFT| Multiplicity                                                             1
 DFT| Number of spin states                                                    1
 DFT| Charge                                                                   0
 DFT| Self-interaction correction (SIC)                                       NO
 DFT| Cutoffs: density                                              1.000000E-10
 DFT|          gradient                                             1.000000E-10
 DFT|          tau                                                  1.000000E-10
 DFT|          cutoff_smoothing_range                               0.000000E+00
 DFT| XC density smoothing                                                  NONE
 DFT| XC derivatives                                                          PW

 FUNCTIONAL| PBE:
 FUNCTIONAL| J.P.Perdew, K.Burke, M.Ernzerhof, Phys. Rev. Letter, vol. 77, n 18,
 FUNCTIONAL|  pp. 3865-3868, (1996)sx=0.750sc=1.000{spin unpolarized}           


 QS| Method:                                                                GAPW
 QS| Density plane wave grid type                        NON-SPHERICAL FULLSPACE
 QS| Number of grid levels:                                                    5
 QS| Density cutoff [a.u.]:                                                600.0
 QS| Multi grid cutoff [a.u.]: 1) grid level                               600.0
 QS|                           2) grid level                               200.0
 QS|                           3) grid level                                66.7
 QS|                           4) grid level                                22.2
 QS|                           5) grid level                                 7.4
 QS| Grid level progression factor:                                          3.0
 QS| Relative density cutoff [a.u.]:                                        40.0
 QS| Interaction thresholds: eps_pgf_orb:                                1.0E-30
 QS|                         eps_filter_matrix:                          0.0E+00
 QS|                         eps_core_charge:                            1.0E-17
 QS|                         eps_rho_gspace:                             1.0E-15
 QS|                         eps_rho_rspace:                             1.0E-15
 QS|                         eps_gvg_rspace:                             3.2E-08
 QS|                         eps_ppl:                                    1.0E-02
 QS|                         eps_ppnl:                                   3.2E-10
 QS| GAPW|      One center basis from orbital basis primitives
 QS| GAPW|                   eps_fit:                                    1.0E-04
 QS| GAPW|                   eps_iso:                                    1.0E-12
 QS| GAPW|                   eps_svd:                                    1.0E-08
 QS| GAPW|                   eps_cpc:                                    1.0E-15
 QS| GAPW|   atom-r-grid: quadrature:                                     GC_LOG
 QS| GAPW|      atom-s-grid:  max l :                                          6
 QS| GAPW|      max_l_rho0 :                                                   2


 ATOMIC KIND INFORMATION

  1. Atomic kind: C                                     Number of atoms:       4

     Orbital Basis Set                                        Ahlrichs-def2-TZVP

       Number of orbital shell sets:                                          11
       Number of orbital shells:                                              11
       Number of primitive Cartesian functions:                               20
       Number of Cartesian basis functions:                                   36
       Number of spherical basis functions:                                   31
       Norm type:                                                              2

       Normalised Cartesian orbitals:

                        Set   Shell   Orbital            Exponent    Coefficient

                          1       1    1s            13575.349682       0.543591
                                                      2035.233368       1.014554
                                                       463.225624       1.731573
                                                       131.200196       2.691038
                                                        42.853016       3.604455
                                                        15.584186       3.702556

                          2       1    1s                6.206714       1.838354
                                                         2.576490       0.544758

                          3       1    1s                0.576963       0.471815

                          4       1    1s                0.229728       0.236494

                          5       1    1s                0.095164       0.122114

                          6       1    1px              34.697232       1.359665
                                                         7.958262       1.451259
                                                         2.378083       1.270923
                                                         0.814332       0.802572
                          6       1    1py              34.697232       1.359665
                                                         7.958262       1.451259
                                                         2.378083       1.270923
                                                         0.814332       0.802572
                          6       1    1pz              34.697232       1.359665
                                                         7.958262       1.451259
                                                         2.378083       1.270923
                                                         0.814332       0.802572

                          7       1    1px               0.288875       0.301876
                          7       1    1py               0.288875       0.301876
                          7       1    1pz               0.288875       0.301876

                          8       1    1px               0.100568       0.080727
                          8       1    1py               0.100568       0.080727
                          8       1    1pz               0.100568       0.080727

                          9       1    1dx2              1.097000       1.935401
                          9       1    1dxy              1.097000       3.352214
                          9       1    1dxz              1.097000       3.352214
                          9       1    1dy2              1.097000       1.935401
                          9       1    1dyz              1.097000       3.352214
                          9       1    1dz2              1.097000       1.935401

                         10       1    1dx2              0.318000       0.221644
                         10       1    1dxy              0.318000       0.383899
                         10       1    1dxz              0.318000       0.383899
                         10       1    1dy2              0.318000       0.221644
                         10       1    1dyz              0.318000       0.383899
                         10       1    1dz2              0.318000       0.221644

                         11       1    1fx3              0.761000       0.796288
                         11       1    1fx2y             0.761000       1.780553
                         11       1    1fx2z             0.761000       1.780553
                         11       1    1fxy2             0.761000       1.780553
                         11       1    1fxyz             0.761000       3.084008
                         11       1    1fxz2             0.761000       1.780553
                         11       1    1fy3              0.761000       0.796288
                         11       1    1fy2z             0.761000       1.780553
                         11       1    1fyz2             0.761000       1.780553
                         11       1    1fz3              0.761000       0.796288

       Atomic covalent radius [Angstrom]:                                  0.770

       Atomic van der Waals radius [Angstrom]:                             1.700

     The atoms of this atomic kind are PAW atoms (GAPW):
       Hard Gaussian function radius:                                      1.512
       Rho0 radius:                                                        1.512
       Maximum GTO radius used for PAW projector construction:            24.566

     GAPW Soft Basis Set                                 Ahlrichs-def2-TZVP_soft

       Number of orbital shell sets:                                          11
       Number of orbital shells:                                              11
       Number of primitive Cartesian functions:                               11
       Number of Cartesian basis functions:                                   36
       Number of spherical basis functions:                                   31
       Norm type:                                                              2

       Normalised Cartesian orbitals:

                        Set   Shell   Orbital            Exponent    Coefficient

                          1       1    1s         

                          2       1    1s                2.576490       0.544758

                          3       1    1s                0.576963       0.471815

                          4       1    1s                0.229728       0.236494

                          5       1    1s                0.095164       0.122114

                          6       1    1px               2.378083       1.270923
                                                         0.814332       0.802572
                          6       1    1py               2.378083       1.270923
                                                         0.814332       0.802572
                          6       1    1pz               2.378083       1.270923
                                                         0.814332       0.802572

                          7       1    1px               0.288875       0.301876
                          7       1    1py               0.288875       0.301876
                          7       1    1pz               0.288875       0.301876

                          8       1    1px               0.100568       0.080727
                          8       1    1py               0.100568       0.080727
                          8       1    1pz               0.100568       0.080727

                          9       1    1dx2              1.097000       1.935401
                          9       1    1dxy              1.097000       3.352214
                          9       1    1dxz              1.097000       3.352214
                          9       1    1dy2              1.097000       1.935401
                          9       1    1dyz              1.097000       3.352214
                          9       1    1dz2              1.097000       1.935401

                         10       1    1dx2              0.318000       0.221644
                         10       1    1dxy              0.318000       0.383899
                         10       1    1dxz              0.318000       0.383899
                         10       1    1dy2              0.318000       0.221644
                         10       1    1dyz              0.318000       0.383899
                         10       1    1dz2              0.318000       0.221644

                         11       1    1fx3              0.761000       0.796288
                         11       1    1fx2y             0.761000       1.780553
                         11       1    1fx2z             0.761000       1.780553
                         11       1    1fxy2             0.761000       1.780553
                         11       1    1fxyz             0.761000       3.084008
                         11       1    1fxz2             0.761000       1.780553
                         11       1    1fy3              0.761000       0.796288
                         11       1    1fy2z             0.761000       1.780553
                         11       1    1fyz2             0.761000       1.780553
                         11       1    1fz3              0.761000       0.796288

     AE Potential information for                                            ALL

       Description:                                       All-electron potential
                                          Krack, Parrinello, PCCP 2, 2105 (2000)

       Gaussian exponent of the core charge distribution:               4.109048
       Electronic configuration (s p d ...):                           4   2   0

  2. Atomic kind: S                                     Number of atoms:       2

     Orbital Basis Set                                                def2-TZVPP

       Number of orbital shell sets:                                          14
       Number of orbital shells:                                              14
       Number of primitive Cartesian functions:                               27
       Number of Cartesian basis functions:                                   48
       Number of spherical basis functions:                                   42
       Norm type:                                                              2

       Normalised Cartesian orbitals:

                        Set   Shell   Orbital            Exponent    Coefficient

                          1       1    1s            60700.928104       1.443686
                                                      9102.610685       2.690342
                                                      2071.416601       4.557613
                                                       586.024768       6.918117
                                                       190.553950       8.681024
                                                        67.630384       7.517583
                                                        25.127307       2.790901

                          2       1    1s              112.574630       2.474372
                                                        34.795554       4.430516
                                                         6.511556      -3.510721

                          3       1    1s                3.239903       1.161718
                                                         1.547716       0.343256

                          4       1    1s                0.405410       0.362102

                          5       1    1s                0.145507       0.167908

                          6       1    1px             564.367160      13.679018
                                                       133.426244      17.895267
                                                        42.468271      19.562932
                                                        15.616528      16.003695
                                                         6.109399       8.381967
                          6       1    1py             564.367160      13.679018
                                                       133.426244      17.895267
                                                        42.468271      19.562932
                                                        15.616528      16.003695
                                                         6.109399       8.381967
                          6       1    1pz             564.367160      13.679018
                                                       133.426244      17.895267
                                                        42.468271      19.562932
                                                        15.616528      16.003695
                                                         6.109399       8.381967

                          7       1    1px               2.440416       4.347804
                          7       1    1py               2.440416       4.347804
                          7       1    1pz               2.440416       4.347804

                          8       1    1px               0.838822       1.144267
                          8       1    1py               0.838822       1.144267
                          8       1    1pz               0.838822       1.144267

                          9       1    1px               0.312887       0.333561
                          9       1    1py               0.312887       0.333561
                          9       1    1pz               0.312887       0.333561

                         10       1    1px               0.107701       0.087946
                         10       1    1py               0.107701       0.087946
                         10       1    1pz               0.107701       0.087946

                         11       1    1dx2              3.756000      16.679354
                         11       1    1dxy              3.756000      28.889489
                         11       1    1dxz              3.756000      28.889489
                         11       1    1dy2              3.756000      16.679354
                         11       1    1dyz              3.756000      28.889489
                         11       1    1dz2              3.756000      16.679354

                         12       1    1dx2              0.812000       1.143227
                         12       1    1dxy              0.812000       1.980127
                         12       1    1dxz              0.812000       1.980127
                         12       1    1dy2              0.812000       1.143227
                         12       1    1dyz              0.812000       1.980127
                         12       1    1dz2              0.812000       1.143227

                         13       1    1dx2              0.273000       0.169705
                         13       1    1dxy              0.273000       0.293937
                         13       1    1dxz              0.273000       0.293937
                         13       1    1dy2              0.273000       0.169705
                         13       1    1dyz              0.273000       0.293937
                         13       1    1dz2              0.273000       0.169705

                         14       1    1fx3              0.557000       0.394574
                         14       1    1fx2y             0.557000       0.882295
                         14       1    1fx2z             0.557000       0.882295
                         14       1    1fxy2             0.557000       0.882295
                         14       1    1fxyz             0.557000       1.528179
                         14       1    1fxz2             0.557000       0.882295
                         14       1    1fy3              0.557000       0.394574
                         14       1    1fy2z             0.557000       0.882295
                         14       1    1fyz2             0.557000       0.882295
                         14       1    1fz3              0.557000       0.394574

       Atomic covalent radius [Angstrom]:                                  1.020

       Atomic van der Waals radius [Angstrom]:                             1.800

     The atoms of this atomic kind are PAW atoms (GAPW):
       Hard Gaussian function radius:                                      1.512
       Rho0 radius:                                                        1.512
       Maximum GTO radius used for PAW projector construction:            24.566

     GAPW Soft Basis Set                                         def2-TZVPP_soft

       Number of orbital shell sets:                                          14
       Number of orbital shells:                                              14
       Number of primitive Cartesian functions:                               12
       Number of Cartesian basis functions:                                   48
       Number of spherical basis functions:                                   42
       Norm type:                                                              2

       Normalised Cartesian orbitals:

                        Set   Shell   Orbital            Exponent    Coefficient

                          1       1    1s         

                          2       1    1s         

                          3       1    1s                3.239903       1.161718
                                                         1.547716       0.343256

                          4       1    1s                0.405410       0.362102

                          5       1    1s                0.145507       0.167908

                          6       1    1px        
                          6       1    1py        
                          6       1    1pz        

                          7       1    1px               2.440416       4.347804
                          7       1    1py               2.440416       4.347804
                          7       1    1pz               2.440416       4.347804

                          8       1    1px               0.838822       1.144267
                          8       1    1py               0.838822       1.144267
                          8       1    1pz               0.838822       1.144267

                          9       1    1px               0.312887       0.333561
                          9       1    1py               0.312887       0.333561
                          9       1    1pz               0.312887       0.333561

                         10       1    1px               0.107701       0.087946
                         10       1    1py               0.107701       0.087946
                         10       1    1pz               0.107701       0.087946

                         11       1    1dx2              3.756000      16.679354
                         11       1    1dxy              3.756000      28.889489
                         11       1    1dxz              3.756000      28.889489
                         11       1    1dy2              3.756000      16.679354
                         11       1    1dyz              3.756000      28.889489
                         11       1    1dz2              3.756000      16.679354

                         12       1    1dx2              0.812000       1.143227
                         12       1    1dxy              0.812000       1.980127
                         12       1    1dxz              0.812000       1.980127
                         12       1    1dy2              0.812000       1.143227
                         12       1    1dyz              0.812000       1.980127
                         12       1    1dz2              0.812000       1.143227

                         13       1    1dx2              0.273000       0.169705
                         13       1    1dxy              0.273000       0.293937
                         13       1    1dxz              0.273000       0.293937
                         13       1    1dy2              0.273000       0.169705
                         13       1    1dyz              0.273000       0.293937
                         13       1    1dz2              0.273000       0.169705

                         14       1    1fx3              0.557000       0.394574
                         14       1    1fx2y             0.557000       0.882295
                         14       1    1fx2z             0.557000       0.882295
                         14       1    1fxy2             0.557000       0.882295
                         14       1    1fxyz             0.557000       1.528179
                         14       1    1fxz2             0.557000       0.882295
                         14       1    1fy3              0.557000       0.394574
                         14       1    1fy2z             0.557000       0.882295
                         14       1    1fyz2             0.557000       0.882295
                         14       1    1fz3              0.557000       0.394574

     AE Potential information for                                            ALL

       Description:                                       All-electron potential
                                          Krack, Parrinello, PCCP 2, 2105 (2000)

       Gaussian exponent of the core charge distribution:               2.834467
       Electronic configuration (s p d ...):                           6  10   0

  3. Atomic kind: H                                     Number of atoms:       4

     Orbital Basis Set                                        Ahlrichs-def2-TZVP

       Number of orbital shell sets:                                           4
       Number of orbital shells:                                               4
       Number of primitive Cartesian functions:                                6
       Number of Cartesian basis functions:                                    6
       Number of spherical basis functions:                                    6
       Norm type:                                                              2

       Normalised Cartesian orbitals:

                        Set   Shell   Orbital            Exponent    Coefficient

                          1       1    1s               34.061341       0.255630
                                                         5.123575       0.461360
                                                         1.164663       0.681121

                          2       1    1s                0.327230       0.308355

                          3       1    1s                0.103072       0.129648

                          4       1    1px               0.800000       1.078456
                          4       1    1py               0.800000       1.078456
                          4       1    1pz               0.800000       1.078456

       Atomic covalent radius [Angstrom]:                                  0.320

       Atomic van der Waals radius [Angstrom]:                             1.090

     The atoms of this atomic kind are PAW atoms (GAPW):
       Hard Gaussian function radius:                                      1.200
       Rho0 radius:                                                        1.200
       Maximum GTO radius used for PAW projector construction:            24.566

     GAPW Soft Basis Set                                 Ahlrichs-def2-TZVP_soft

       Number of orbital shell sets:                                           4
       Number of orbital shells:                                               4
       Number of primitive Cartesian functions:                                5
       Number of Cartesian basis functions:                                    6
       Number of spherical basis functions:                                    6
       Norm type:                                                              2

       Normalised Cartesian orbitals:

                        Set   Shell   Orbital            Exponent    Coefficient

                          1       1    1s                5.123575       0.461360
                                                         1.164663       0.681121

                          2       1    1s                0.327230       0.308355

                          3       1    1s                0.103072       0.129648

                          4       1    1px               0.800000       1.078456
                          4       1    1py               0.800000       1.078456
                          4       1    1pz               0.800000       1.078456

     AE Potential information for                                            ALL

       Description:                                       All-electron potential
                                          Krack, Parrinello, PCCP 2, 2105 (2000)

       Gaussian exponent of the core charge distribution:              12.500000
       Electronic configuration (s p d ...):                           1   0   0


 MOLECULE KIND INFORMATION


 All atoms are their own molecule, skipping detailed information


 TOTAL NUMBERS AND MAXIMUM NUMBERS

  Total number of            - Atomic kinds:                                   3
                             - Atoms:                                         10
                             - Shell sets:                                    88
                             - Shells:                                        88
                             - Primitive Cartesian functions:                158
                             - Cartesian basis functions:                    264
                             - Spherical basis functions:                    232

  Maximum angular momentum of the orbital basis functions:                     3


 MODULE QUICKSTEP: ATOMIC COORDINATES IN ANGSTROM

   Atom Kind Element         X             Y             Z       Z(eff)     Mass
      1    1 C     6      3.483480      5.035378      4.786306   6.0000  12.0107
      2    2 S    16      4.075598      4.505537      3.198869  16.0000  32.0650
      3    2 S    16      5.924402      5.494463      3.198869  16.0000  32.0650
      4    1 C     6      6.516520      4.964622      4.786306   6.0000  12.0107
      5    1 C     6      5.714121      4.859952      5.855700   6.0000  12.0107
      6    1 C     6      4.285879      5.140048      5.855700   6.0000  12.0107
      7    3 H     1      7.582615      4.777498      4.844668   1.0000   1.0079
      8    3 H     1      6.159799      4.568258      6.801131   1.0000   1.0079
      9    3 H     1      3.840201      5.431742      6.801131   1.0000   1.0079
     10    3 H     1      2.417385      5.222502      4.844668   1.0000   1.0079



 SCF PARAMETERS         Density guess:                                    ATOMIC
                        --------------------------------------------------------
                        max_scf:                                              20
                        max_scf_history:                                       0
                        max_diis:                                              4
                        --------------------------------------------------------
                        eps_scf:                                        1.00E-07
                        eps_scf_history:                                0.00E+00
                        eps_diis:                                       1.00E-01
                        eps_eigval:                                     1.00E-05
                        --------------------------------------------------------
                        level_shift [a.u.]:                             0.000000
                        --------------------------------------------------------
                        Outer loop SCF in use 
                        No variables optimised in outer loop
                        eps_scf                                         1.00E-07
                        max_scf                                              200
                        No outer loop optimization
                        step_size                                       5.00E-01

 PW_GRID| Information for grid number                                          1
 PW_GRID| Grid distributed over                                   128 processors
 PW_GRID| Real space group dimensions                                   128    1
 PW_GRID| the grid is blocked:                                                NO
 PW_GRID| Cutoff [a.u.]                                                   1200.0
 PW_GRID| spherical cutoff:                                                   NO
 PW_GRID|   Bounds   1           -150     149                Points:         300
 PW_GRID|   Bounds   2           -150     149                Points:         300
 PW_GRID|   Bounds   3           -150     149                Points:         300
 PW_GRID| Volume element (a.u.^3)  0.2499E-03     Volume (a.u.^3)      6748.3346
 PW_GRID| Grid span                                                    FULLSPACE
 PW_GRID|   Distribution                         Average         Max         Min
 PW_GRID|   G-Vectors                           210937.5      211200      210900
 PW_GRID|   G-Rays                                 703.1         704         703
 PW_GRID|   Real Space Points                   210937.5      270000      180000

 PW_GRID| Information for grid number                                          2
 PW_GRID| Number of the reference grid                                         1
 PW_GRID| Grid distributed over                                   128 processors
 PW_GRID| Real space group dimensions                                   128    1
 PW_GRID| the grid is blocked:                                                NO
 PW_GRID| Cutoff [a.u.]                                                    600.0
 PW_GRID| spherical cutoff:                                                   NO
 PW_GRID|   Bounds   1           -108     107                Points:         216
 PW_GRID|   Bounds   2           -108     107                Points:         216
 PW_GRID|   Bounds   3           -108     107                Points:         216
 PW_GRID| Volume element (a.u.^3)  0.6696E-03     Volume (a.u.^3)      6748.3346
 PW_GRID| Grid span                                                    FULLSPACE
 PW_GRID|   Distribution                         Average         Max         Min
 PW_GRID|   G-Vectors                            78732.0       79056       78408
 PW_GRID|   G-Rays                                 364.5         366         363
 PW_GRID|   Real Space Points                    78732.0       93312       46656

 PW_GRID| Information for grid number                                          3
 PW_GRID| Number of the reference grid                                         2
 PW_GRID| Grid distributed over                                   128 processors
 PW_GRID| Real space group dimensions                                     8   16
 PW_GRID| the grid is blocked:                                                NO
 PW_GRID| Cutoff [a.u.]                                                    200.0
 PW_GRID| spherical cutoff:                                                   NO
 PW_GRID|   Bounds   1            -62      62                Points:         125
 PW_GRID|   Bounds   2            -62      62                Points:         125
 PW_GRID|   Bounds   3            -62      62                Points:         125
 PW_GRID| Volume element (a.u.^3)  0.3455E-02     Volume (a.u.^3)      6748.3346
 PW_GRID| Grid span                                                    FULLSPACE
 PW_GRID|   Distribution                         Average         Max         Min
 PW_GRID|   G-Vectors                            15258.8       15875       14750
 PW_GRID|   G-Rays                                 122.1         127         118
 PW_GRID|   Real Space Points                    15258.8       16000       13125

 PW_GRID| Information for grid number                                          4
 PW_GRID| Number of the reference grid                                         2
 PW_GRID| Grid distributed over                                   128 processors
 PW_GRID| Real space group dimensions                                     8   16
 PW_GRID| the grid is blocked:                                                NO
 PW_GRID| Cutoff [a.u.]                                                     66.7
 PW_GRID| spherical cutoff:                                                   NO
 PW_GRID|   Bounds   1            -36      35                Points:          72
 PW_GRID|   Bounds   2            -36      35                Points:          72
 PW_GRID|   Bounds   3            -36      35                Points:          72
 PW_GRID| Volume element (a.u.^3)  0.1808E-01     Volume (a.u.^3)      6748.3346
 PW_GRID| Grid span                                                    FULLSPACE
 PW_GRID|   Distribution                         Average         Max         Min
 PW_GRID|   G-Vectors                             2916.0        2952        2880
 PW_GRID|   G-Rays                                  40.5          41          40
 PW_GRID|   Real Space Points                     2916.0        3240        2592

 PW_GRID| Information for grid number                                          5
 PW_GRID| Number of the reference grid                                         2
 PW_GRID| Grid distributed over                                   128 processors
 PW_GRID| Real space group dimensions                                     8   16
 PW_GRID| the grid is blocked:                                                NO
 PW_GRID| Cutoff [a.u.]                                                     22.2
 PW_GRID| spherical cutoff:                                                   NO
 PW_GRID|   Bounds   1            -22      22                Points:          45
 PW_GRID|   Bounds   2            -22      22                Points:          45
 PW_GRID|   Bounds   3            -22      22                Points:          45
 PW_GRID| Volume element (a.u.^3)  0.7406E-01     Volume (a.u.^3)      6748.3346
 PW_GRID| Grid span                                                    FULLSPACE
 PW_GRID|   Distribution                         Average         Max         Min
 PW_GRID|   G-Vectors                              711.9         810         630
 PW_GRID|   G-Rays                                  15.8          18          14
 PW_GRID|   Real Space Points                      711.9         810         450

 PW_GRID| Information for grid number                                          6
 PW_GRID| Number of the reference grid                                         2
 PW_GRID| Grid distributed over                                   128 processors
 PW_GRID| Real space group dimensions                                     8   16
 PW_GRID| the grid is blocked:                                                NO
 PW_GRID| Cutoff [a.u.]                                                      7.4
 PW_GRID| spherical cutoff:                                                   NO
 PW_GRID|   Bounds   1            -12      11                Points:          24
 PW_GRID|   Bounds   2            -12      11                Points:          24
 PW_GRID|   Bounds   3            -12      11                Points:          24
 PW_GRID| Volume element (a.u.^3)  0.4882         Volume (a.u.^3)      6748.3346
 PW_GRID| Grid span                                                    FULLSPACE
 PW_GRID|   Distribution                         Average         Max         Min
 PW_GRID|   G-Vectors                              108.0         120          96
 PW_GRID|   G-Rays                                   4.5           5           4
 PW_GRID|   Real Space Points                      108.0         144          72

 POISSON| Solver                                          Martyna-Tuckerman (MT)
 POISSON| MT| Alpha                                                        7.000
 POISSON| MT| Relative cutoff                                                2.0
 POISSON| Periodicity                                                       NONE

 RS_GRID| Information for grid number                                          2
 RS_GRID|   Bounds   1           -108     107                Points:         216
 RS_GRID|   Bounds   2           -108     107                Points:         216
 RS_GRID|   Bounds   3           -108     107                Points:         216
 RS_GRID| Real space distribution over                                  4 groups
 RS_GRID| Real space distribution along direction                              1
 RS_GRID| Border size                                                         44
 RS_GRID| Real space distribution over                                  4 groups
 RS_GRID| Real space distribution along direction                              2
 RS_GRID| Border size                                                         44
 RS_GRID| Real space distribution over                                  8 groups
 RS_GRID| Real space distribution along direction                              3
 RS_GRID| Border size                                                         44
 RS_GRID|   Distribution                         Average         Max         Min
 RS_GRID|   Planes                                 142.0         142         142
 RS_GRID|   Distribution                         Average         Max         Min
 RS_GRID|   Planes                                 142.0         142         142
 RS_GRID|   Distribution                         Average         Max         Min
 RS_GRID|   Planes                                 115.0         115         115

 RS_GRID| Information for grid number                                          3
 RS_GRID|   Bounds   1            -62      62                Points:         125
 RS_GRID|   Bounds   2            -62      62                Points:         125
 RS_GRID|   Bounds   3            -62      62                Points:         125
 RS_GRID| Real space distribution over                                  4 groups
 RS_GRID| Real space distribution along direction                              1
 RS_GRID| Border size                                                         35
 RS_GRID| Real space distribution over                                  4 groups
 RS_GRID| Real space distribution along direction                              2
 RS_GRID| Border size                                                         35
 RS_GRID| Real space distribution over                                  8 groups
 RS_GRID| Real space distribution along direction                              3
 RS_GRID| Border size                                                         35
 RS_GRID|   Distribution                         Average         Max         Min
 RS_GRID|   Planes                                 101.2         102         101
 RS_GRID|   Distribution                         Average         Max         Min
 RS_GRID|   Planes                                 101.2         102         101
 RS_GRID|   Distribution                         Average         Max         Min
 RS_GRID|   Planes                                  85.6          86          85

 RS_GRID| Information for grid number                                          4
 RS_GRID|   Bounds   1            -36      35                Points:          72
 RS_GRID|   Bounds   2            -36      35                Points:          72
 RS_GRID|   Bounds   3            -36      35                Points:          72
 RS_GRID| Real space fully replicated
 RS_GRID| Group size                                                           1

 RS_GRID| Information for grid number                                          5
 RS_GRID|   Bounds   1            -22      22                Points:          45
 RS_GRID|   Bounds   2            -22      22                Points:          45
 RS_GRID|   Bounds   3            -22      22                Points:          45
 RS_GRID| Real space fully replicated
 RS_GRID| Group size                                                           1

 RS_GRID| Information for grid number                                          6
 RS_GRID|   Bounds   1            -12      11                Points:          24
 RS_GRID|   Bounds   2            -12      11                Points:          24
 RS_GRID|   Bounds   3            -12      11                Points:          24
 RS_GRID| Real space fully replicated
 RS_GRID| Group size                                                           1

  HFX_INFO| Replica ID:                                                        1
  HFX_INFO| FRACTION:                                               0.2500000000
  HFX_INFO| Interaction Potential:                                       COULOMB
  HFX_INFO| EPS_SCHWARZ:                                                 1.0E-10
  HFX_INFO| EPS_SCHWARZ_FORCES                                           1.0E-06
  HFX_INFO| EPS_STORAGE_SCALING:                                         1.0E+00
  HFX_INFO| NBINS:                                                            64
  HFX_INFO| BLOCK_SIZE:                                                        1
  HFX_INFO| Number of periodic shells considered:                           NONE
  HFX_INFO| Number of periodic cells considered:                            NONE


 Number of electrons:                                                         60
 Number of occupied orbitals:                                                 30
 Number of molecular orbitals:                                                30

 Number of orbital functions:                                                232
 Number of independent orbital functions:                                    232

 Extrapolation method: initial_guess

 Atomic guess: The first density matrix is obtained in terms of atomic orbitals
               and electronic configurations assigned to each atomic kind

 Guess for atomic kind: C

 Electronic structure
    Total number of core electrons                                          0.00
    Total number of valence electrons                                       6.00
    Total number of electrons                                               6.00
    Multiplicity                                                   not specified
    S      2.00  2.00
    P      2.00
 

 *******************************************************************************
                  Iteration          Convergence                     Energy [au]
 *******************************************************************************
                          1        0.147208                     -37.407693601264
                          2        0.119028                     -37.412727810384
                          3        0.151591E-02                 -37.421609589284
                          4        0.252468E-03                 -37.421611675915
                          5        0.320487E-05                 -37.421611714904
                          6        0.162446E-06                 -37.421611714918

 Energy components [Hartree]           Total Energy ::          -37.421611714918
                                        Band Energy ::          -21.277675770449
                                     Kinetic Energy ::           37.196286588355
                                   Potential Energy ::          -74.617898303274
                                      Virial (-V/T) ::            2.006057731758
                                        Core Energy ::          -50.332032480142
                                          XC Energy ::           -4.732819490143
                                     Coulomb Energy ::           17.643240255367

 Orbital energies  State     L     Occupation   Energy[a.u.]          Energy[eV]

                       1     0          2.000      -9.943251         -270.569607
                       2     0          2.000      -0.498684          -13.569893
 
                       1     1          2.000      -0.196903           -5.358002
 

 Total Electron Density at R=0:                                       121.622713

 Guess for atomic kind: S

 Electronic structure
    Total number of core electrons                                          0.00
    Total number of valence electrons                                      16.00
    Total number of electrons                                              16.00
    Multiplicity                                                   not specified
    S      2.00  2.00  2.00
    P      6.00  4.00
 

 *******************************************************************************
                  Iteration          Convergence                     Energy [au]
 *******************************************************************************
                          1        0.760414                    -396.660763946116
                          2        0.373960                    -396.680042640535
                          3        0.415326E-01                -396.691447966171
                          4        0.304933E-02                -396.692099573710
                          5        0.573628E-05                -396.692102327498
                          6        0.168908E-06                -396.692102327504

 Energy components [Hartree]           Total Energy ::         -396.692102327504
                                        Band Energy ::         -227.690891250390
                                     Kinetic Energy ::          397.012572018448
                                   Potential Energy ::         -793.704674345952
                                      Virial (-V/T) ::            1.999192797121
                                        Core Energy ::         -549.302400255813
                                          XC Energy ::          -24.165303573778
                                     Coulomb Energy ::          176.775601502087

 Orbital energies  State     L     Occupation   Energy[a.u.]          Energy[eV]

                       1     0          2.000     -87.767620        -2388.278395
                       2     0          2.000      -7.693639         -209.354567
                       3     0          2.000      -0.628115          -17.091880
 
                       1     1          6.000      -5.745939         -156.354953
                       2     1          4.000      -0.259127           -7.051209
 

 Total Electron Density at R=0:                                      2572.846298

 Guess for atomic kind: H

 Electronic structure
    Total number of core electrons                                          0.00
    Total number of valence electrons                                       1.00
    Total number of electrons                                               1.00
    Multiplicity                                                   not specified
    S      1.00
 

 *******************************************************************************
                  Iteration          Convergence                     Energy [au]
 *******************************************************************************
                          1        0.917598E-02                  -0.444895232610
                          2        0.101733E-02                  -0.444969959338
                          3        0.739292E-04                  -0.444971980690
                          4        0.601377E-07                  -0.444971989573

 Energy components [Hartree]           Total Energy ::           -0.444971989573
                                        Band Energy ::           -0.230448725171
                                     Kinetic Energy ::            0.428990089350
                                   Potential Energy ::           -0.873962078923
                                      Virial (-V/T) ::            2.037254707321
                                        Core Energy ::           -0.496265746842
                                          XC Energy ::           -0.234272986041
                                     Coulomb Energy ::            0.285566743311

 Orbital energies  State     L     Occupation   Energy[a.u.]          Energy[eV]

                       1     0          1.000      -0.230449           -6.270829
 

 Total Electron Density at R=0:                                         0.247098
 Re-scaling the density matrix to get the right number of electrons
                  # Electrons              Trace(P)               Scaling factor
                           60                60.000                        1.000


 SCF WAVEFUNCTION OPTIMIZATION

  ----------------------------------- OT ---------------------------------------
  Minimizer      : DIIS                : direct inversion
                                         in the iterative subspace
                                         using   7 DIIS vectors
                                         safer DIIS on
  Preconditioner : FULL_ALL            : diagonalization, state selective
  Precond_solver : DEFAULT
  stepsize       :    0.15000000                  energy_gap     :    0.08000000
  eps_taylor     :   0.10000E-15                  max_taylor     :             4
  ----------------------------------- OT ---------------------------------------

  Step     Update method      Time    Convergence         Total energy    Change
  ------------------------------------------------------------------------------

  HFX_MEM_INFO| Est. max. program size before HFX [MiB]:                     590
  HFX_MEM_INFO| Number of cart. primitive ERI's calculated:           2298289830
  HFX_MEM_INFO| Number of sph. ERI's calculated:                       455036923
  HFX_MEM_INFO| Number of sph. ERI's stored in-core:                   455036923
  HFX_MEM_INFO| Number of sph. ERI's stored on disk:                           0
  HFX_MEM_INFO| Number of sph. ERI's calculated on the fly:                    0
  HFX_MEM_INFO| Total memory consumption ERI's RAM [MiB]:                   1216
  HFX_MEM_INFO| Whereof max-vals [MiB]:                                        5
  HFX_MEM_INFO| Total compression factor ERI's RAM:                         2.86
  HFX_MEM_INFO| Total memory consumption ERI's disk [MiB]:                     0
  HFX_MEM_INFO| Total compression factor ERI's disk:                        0.00
  HFX_MEM_INFO| Size of density/Fock matrix [MiB]:                             0
  HFX_MEM_INFO| Size of buffers [MiB]:                                         1
  HFX_MEM_INFO| Est. max. program size after HFX  [MiB]:                     977

     1 OT DIIS     0.15E+00   18.5     0.17263150      -926.7938646730 -9.27E+02
     2 OT DIIS     0.15E+00    3.2     0.05061166      -946.9205450471 -2.01E+01
     3 OT DIIS     0.15E+00    2.7     0.01878580      -948.8587116348 -1.94E+00
     4 OT DIIS     0.15E+00    2.2     0.01338225      -949.1998693834 -3.41E-01
     5 OT DIIS     0.15E+00    2.4     0.01098493      -949.4486028176 -2.49E-01
     6 OT DIIS     0.15E+00    2.3     0.00891743      -949.7092716207 -2.61E-01
     7 OT DIIS     0.15E+00    2.1     0.00673234      -949.9883911630 -2.79E-01
     8 OT DIIS     0.15E+00    2.0     0.00566224      -950.1216239797 -1.33E-01
     9 OT DIIS     0.15E+00    1.9     0.00463580      -950.2564942879 -1.35E-01
    10 OT DIIS     0.15E+00    1.9     0.00400673      -950.3473586057 -9.09E-02
    11 OT DIIS     0.15E+00    1.9     0.00366884      -950.4008318104 -5.35E-02
    12 OT DIIS     0.15E+00    1.7     0.00333136      -950.4498622560 -4.90E-02
    13 OT DIIS     0.15E+00    1.8     0.00310232      -950.4937621037 -4.39E-02
    14 OT DIIS     0.15E+00    1.7     0.00296852      -950.5399774064 -4.62E-02
    15 OT DIIS     0.15E+00    1.6     0.00275575      -950.5755332171 -3.56E-02
    16 OT DIIS     0.15E+00    1.6     0.00277024      -950.6109839075 -3.55E-02
    17 OT DIIS     0.15E+00    1.6     0.00240699      -950.6489822551 -3.80E-02
    18 OT DIIS     0.15E+00    1.5     0.00217863      -950.6857737629 -3.68E-02
    19 OT DIIS     0.15E+00    1.4     0.00237633      -950.7050772871 -1.93E-02
    20 OT DIIS     0.15E+00    1.5     0.00166794      -950.7294289821 -2.44E-02

  Leaving inner SCF loop after reaching    20 steps.


  Electronic density on regular grids:        -36.7941209052       23.2058790948
  Core density on regular grids:               60.0000000000       -0.0000000000
  Hard and soft densities (Lebedev):          -73.6989851955      -50.4931133138
  Total Rho_soft + Rho1_hard - Rho1_soft      -59.9999927869
  Total charge density (r-space):               0.0000072131
  Total Rho_soft + Rho0_soft (g-space):         0.0000074121

  Overlap energy of the core charge distribution:               0.00001234061455
  Self energy of the core charge distribution:               -465.97986656936240
  Core Hamiltonian energy:                                   -484.00539624480177
  Hartree energy:                                             130.33677473595432
  Exchange-correlation energy:                                -13.00074291617340
  Hartree-Fock Exchange energy:                               -18.04353918496927

  GAPW| Exc from hard and soft atomic rho1:                   -43.07269696607506
  GAPW| local Eh = 1 center integrals:                        -56.96397417727895

  Total energy:                                              -950.72942898209203

  outer SCF iter =    1 RMS gradient =   0.17E-02 energy =       -950.7294289821

  ----------------------------------- OT ---------------------------------------
  Minimizer      : DIIS                : direct inversion
                                         in the iterative subspace
                                         using   7 DIIS vectors
                                         safer DIIS on
  Preconditioner : FULL_ALL            : diagonalization, state selective
  Precond_solver : DEFAULT
  stepsize       :    0.15000000                  energy_gap     :    0.08000000
  eps_taylor     :   0.10000E-15                  max_taylor     :             4
  ----------------------------------- OT ---------------------------------------

  Step     Update method      Time    Convergence         Total energy    Change
  ------------------------------------------------------------------------------
     1 OT DIIS     0.15E+00    3.4     0.00653770      -950.7416811556 -1.23E-02
     2 OT DIIS     0.15E+00    1.4     0.00344136      -950.7735618927 -3.19E-02
     3 OT DIIS     0.15E+00    1.5     0.00193552      -950.7822497954 -8.69E-03
     4 OT DIIS     0.15E+00    1.3     0.00062325      -950.7839935312 -1.74E-03
     5 OT DIIS     0.15E+00    1.3     0.00014370      -950.7841315439 -1.38E-04
     6 OT DIIS     0.15E+00    1.3     0.00007030      -950.7841491735 -1.76E-05
     7 OT DIIS     0.15E+00    1.4     0.00001691      -950.7841524891 -3.32E-06
     8 OT DIIS     0.15E+00    1.2     0.00000833      -950.7841527188 -2.30E-07
     9 OT DIIS     0.15E+00    1.2     0.00000258      -950.7841527564 -3.76E-08
    10 OT DIIS     0.15E+00    1.1     0.00000093      -950.7841527632 -6.78E-09
    11 OT DIIS     0.15E+00    1.2     0.00000042      -950.7841527639 -7.76E-10
    12 OT DIIS     0.15E+00    1.1     0.00000008      -950.7841527650 -1.11E-09

  *** SCF run converged in    12 steps ***


  Electronic density on regular grids:        -36.7931642857       23.2068357143
  Core density on regular grids:               60.0000000000       -0.0000000000
  Hard and soft densities (Lebedev):          -73.5443668653      -50.3375385100
  Total Rho_soft + Rho1_hard - Rho1_soft      -59.9999926410
  Total charge density (r-space):               0.0000073590
  Total Rho_soft + Rho0_soft (g-space):         0.0000075579

  Overlap energy of the core charge distribution:               0.00001234061455
  Self energy of the core charge distribution:               -465.97986656936240
  Core Hamiltonian energy:                                   -484.03367951608760
  Hartree energy:                                             130.32132859906878
  Exchange-correlation energy:                                -13.00686818775332
  Hartree-Fock Exchange energy:                               -18.04678180041736

  GAPW| Exc from hard and soft atomic rho1:                   -43.07127436963053
  GAPW| local Eh = 1 center integrals:                        -56.96702326146563

  Total energy:                                              -950.78415276503347

  outer SCF iter =    2 RMS gradient =   0.78E-07 energy =       -950.7841527650
  outer SCF loop converged in   2 iterations or   32 steps


 !-----------------------------------------------------------------------------!
                     Mulliken Population Analysis

 #  Atom  Element  Kind  Atomic population                           Net charge
       1     C        1          6.125361                             -0.125361
       2     S        2         16.034992                             -0.034992
       3     S        2         16.034993                             -0.034993
       4     C        1          6.125362                             -0.125362
       5     C        1          6.204596                             -0.204596
       6     C        1          6.204596                             -0.204596
       7     H        3          0.812987                              0.187013
       8     H        3          0.822063                              0.177937
       9     H        3          0.822063                              0.177937
      10     H        3          0.812987                              0.187013
 # Total charge                             60.000000                 -0.000000

 !-----------------------------------------------------------------------------!

 !-----------------------------------------------------------------------------!
                           Hirshfeld Charges

  #Atom  Element  Kind  Ref Charge     Population                    Net charge
      1       C      1       6.000          6.160                        -0.160
      2       S      2      16.000         16.376                        -0.376
      3       S      2      16.000         16.376                        -0.376
      4       C      1       6.000          6.160                        -0.160
      5       C      1       6.000          6.457                        -0.457
      6       C      1       6.000          6.457                        -0.457
      7       H      3       1.000          0.499                         0.501
      8       H      3       1.000          0.506                         0.494
      9       H      3       1.000          0.506                         0.494
     10       H      3       1.000          0.499                         0.501

  Total Charge                                                            0.006
 !-----------------------------------------------------------------------------!

 *******************************************************************************
 **                                                                           **
 **         ######## #######   #######   ######## #######  ########           **
 **            ##    ##     ## ##     ## ##       ##   ##     ##              **
 **            ##    ##     ## ##     ## ######   #######     ##              **
 **            ##    ##     ## ##     ## ##       ##          ##              **
 **            ##    #######   #######   ##       ##          ##              **
 **                                                                           **
 *******************************************************************************
 KERNEL|                                                                    FULL
 FUNCTIONAL| PBE:
 FUNCTIONAL| J.P.Perdew, K.Burke, M.Ernzerhof, Phys. Rev. Letter, vol. 77, n 18,
 FUNCTIONAL|  pp. 3865-3868, (1996)sx=0.750sc=1.000{spin unpolarized}           
 KERNEL|                                                          Exact Exchange
 KERNEL| Spin symmetry of excitations                                    Triplet
 TDDFPT| Number of states calculated                                          10
 TDDFPT| Number of Davidson iterations                                        20
 TDDFPT| Davidson iteration convergence                                0.100E-07
 TDDFPT| Max. number of Krylov space vectors                                  60
 TDDFPT| Molecular Orbitals:        Spin       AOs       Occ      Virt     Total
 TDDFPT|                               1       232        30       202       232

 *******************************************************************************
 **                                                                           **
 **                            ####### ####### #######                        **
 **                        #   ##      ##   ## ##                             **
 **                       ###  ######  ##   ## ##                             **
 **                        #       ##  ##   ## ##                             **
 **                            ######  ####### #######                        **
 **                 Based on the xas module from Augustin Bussy               **
 *******************************************************************************
 
 -------------------------------------------------------------------------------
 -                      TDDFPT TRIPLET ENERGIES                                 -
 -------------------------------------------------------------------------------
 
 -------------------------------------------------------------------------------
 -                            TDDFPT Initial Guess                             -
 -------------------------------------------------------------------------------
          State         Occupied      ->      Virtual          Excitation
          number         orbital              orbital          energy (eV)
 -------------------------------------------------------------------------------
             1               30                   31              3.92083
             2               29                   31              5.80874
             3               28                   31              5.83783
             4               30                   32              5.87742
             5               30                   33              6.84252
             6               30                   34              7.28211
             7               27                   31              7.47865
             8               29                   32              7.76534
             9               28                   32              7.79443
            10               30                   35              7.92896

      Number of active states:                                       6060
 -------------------------------------------------------------------------------
 
 -------------------------------------------------------------------------------
 -                      TDDFPT WAVEFUNCTION OPTIMIZATION                       -
 -------------------------------------------------------------------------------

          Step            Time         Convergence           Conv. states
 -------------------------------------------------------------------------------

    State    Exc. energy (eV)      Convergence (eV)
        1       2.0105239            -1.9103E+00
        2       3.5449052            -2.2638E+00
        3       3.8864791            -1.9514E+00
        4       4.2808106            -1.5966E+00
        5       5.0249878            -1.8175E+00
        6       5.2330505            -2.0491E+00
        7       5.8490899            -1.6296E+00
        8       5.9175569            -1.8478E+00
        9       5.9935015            -1.8009E+00
       10       6.7201783            -1.2088E+00
 
             1            13.5          8.3195E-02                      0

    State    Exc. energy (eV)      Convergence (eV)
        1       1.9011787            -1.0935E-01
        2       3.3437117            -2.0119E-01
        3       3.7501894            -1.3629E-01
        4       4.2024308            -7.8380E-02
        5       4.8495665            -1.7542E-01
        6       4.9854396            -2.4761E-01
        7       5.6013153            -2.4777E-01
        8       5.7750805            -1.4248E-01
        9       5.8441519            -1.4935E-01
       10       6.6347876            -8.5391E-02
 
             2            11.8          9.1055E-03                      0

[...]
 flops    42 x    30 x    31            680581440       0.0%    100.0%      0.0%
 flops    31 x    30 x    42            680581440       0.0%    100.0%      0.0%
 flops    31 x    30 x    31           1066248720       0.0%    100.0%      0.0%
 flops inhomo. stacks                   107735040     100.0%      0.0%      0.0%
 flops total                         5.386701E+09       2.0%     98.0%      0.0%
 flops max/rank                      1.320349E+09       3.7%     96.3%      0.0%
 matmuls inhomo. stacks                      1348     100.0%      0.0%      0.0%
 matmuls total                             157157       0.9%     99.1%      0.0%
 number of processed stacks                145744       0.9%     99.1%      0.0%
 average stack size                                     1.0       1.1       0.0
 marketing flops                     5.988868E+09
 -------------------------------------------------------------------------------
 # multiplications                           1946
 max memory usage/rank               1.175802E+09
 # max total images/rank                        2
 # max 3D layers                                1
 # MPI messages exchanged                 7223552
 MPI messages size (bytes):
  total size                         8.144815E+09
  min size                           0.000000E+00
  max size                          28.224000E+03
  average size                       1.127536E+03
 MPI breakdown and total messages size (bytes):
             size <=      128             5904041                        0
       128 < size <=     8192              919212               2745730368
      8192 < size <=    32768              400299               5399084064
     32768 < size <=   131072                   0                        0
    131072 < size <=  4194304                   0                        0
   4194304 < size <= 16777216                   0                        0
  16777216 < size                               0                        0
 -------------------------------------------------------------------------------

 *** WARNING in dbcsr_mm.F:291 :: Using a non-square number of MPI ranks ***
 *** might lead to poor performance. Used ranks: 128 Suggested: 121 256  ***

 -------------------------------------------------------------------------------
 -                                                                             -
 -                      DBCSR MESSAGE PASSING PERFORMANCE                      -
 -                                                                             -
 -------------------------------------------------------------------------------
 ROUTINE             CALLS      AVE VOLUME [Bytes]
 MP_Bcast               49                     12.
 MP_Allreduce         8582                      8.
 MP_Alltoall         29182                  40110.
 MP_ISend           121478                   2228.
 MP_IRecv           120632                   1796.
 -------------------------------------------------------------------------------

 -------------------------------------------------------------------------------
 -                                                                             -
 -                                DBM STATISTICS                               -
 -                                                                             -
 -------------------------------------------------------------------------------
    M  x    N  x    K                                          COUNT     PERCENT
 -------------------------------------------------------------------------------

 -------------------------------------------------------------------------------
 -                                                                             -
 -                                GRID STATISTICS                              -
 -                                                                             -
 -------------------------------------------------------------------------------
 LP    KERNEL             BACKEND                              COUNT     PERCENT
 2     collocate general  CPU                                 222720      12.37%
 1     collocate ortho    CPU                                 206850      11.49%
 1     integrate ortho    CPU                                 203304      11.29%
 2     collocate ortho    CPU                                 179200       9.96%
 2     integrate ortho    CPU                                 176128       9.78%
 0     collocate ortho    CPU                                 144550       8.03%
 0     integrate ortho    CPU                                 142072       7.89%
 2     integrate general  CPU                                 130560       7.25%
 3     collocate ortho    CPU                                 123200       6.84%
 3     integrate ortho    CPU                                 121088       6.73%
 4     collocate ortho    CPU                                  53725       2.98%
 4     integrate ortho    CPU                                  52804       2.93%
 5     collocate ortho    CPU                                  17150       0.95%
 5     integrate ortho    CPU                                  16856       0.94%
 6     collocate ortho    CPU                                   3675       0.20%
 6     integrate ortho    CPU                                   3612       0.20%
 0     collocate general  CPU                                   1280       0.07%
 0     integrate general  CPU                                   1280       0.07%
 -------------------------------------------------------------------------------

 MEMORY| Estimated peak process memory [MiB]                                1122

 -------------------------------------------------------------------------------
 ----                             MULTIGRID INFO                            ----
 -------------------------------------------------------------------------------
 count for grid        1:        1362487          cutoff [a.u.]          600.00
 count for grid        2:         190289          cutoff [a.u.]          200.00
 count for grid        3:         208494          cutoff [a.u.]           66.67
 count for grid        4:          72283          cutoff [a.u.]           22.22
 count for grid        5:           3200          cutoff [a.u.]            7.41
 total gridlevel count  :        1836753

 -------------------------------------------------------------------------------
 -                                                                             -
 -                         MESSAGE PASSING PERFORMANCE                         -
 -                                                                             -
 -------------------------------------------------------------------------------

 ROUTINE             CALLS      AVE VOLUME [Bytes]
 MP_Group                6
 MP_Bcast             5520                 942108.
 MP_Allreduce        13730                  20361.
 MP_Sync              2355
 MP_Alltoall          5021                2656575.
 MP_SendRecv         66675                  11184.
 MP_ISendRecv       145034                  20479.
 MP_Wait            186913
 MP_comm_split          93
 MP_ISend            45488                 308224.
 MP_IRecv            48108                 291607.
 -------------------------------------------------------------------------------


 -------------------------------------------------------------------------------
 -                                                                             -
 -                           R E F E R E N C E S                               -
 -                                                                             -
 -------------------------------------------------------------------------------
 
 CP2K version 2023.1 (Development Version), the CP2K developers group (2023).
 CP2K is freely available from https://www.cp2k.org/ .

 Kuehne,Thomas D.; Iannuzzi,Marcella; Del Ben,Mauro;
 Rybkin,Vladimir V.; Seewald,Patrick; Stein,Frederick; Laino,Teodoro;
 Khaliullin,Rustam Z.; Schuett,Ole; Schiffmann,Florian; Golze,Dorothea;
 Wilhelm,Jan; Chulkov,Sergey; Bani-Hashemian,Mohammad Hossein;
 Weber,Valery; Borstnik,Urban; Taillefumier,Mathieu;
 Jakobovits,Alice Shoshana; Lazzaro,Alfio; Pabst,Hans; Mueller,Tiziano;
 Schade,Robert; Guidon,Manuel; Andermatt,Samuel; Holmberg,Nico;
 Schenter,Gregory K.; Hehn,Anna; Bussy,Augustin; Belleflamme,Fabian;
 Tabacchi,Gloria; Gloess,Andreas; Lass,Michael; Bethune,Iain;
 Mundy,Christopher J.; Plessl,Christian; Watkins,Matt;
 VandeVondele,Joost; Krack,Matthias; Hutter,Juerg. 
 The Journal of Chemical Physics, 152 (19), (2020). 
 CP2K: An electronic structure and molecular dynamics software package -
 Quickstep: Efficient and accurate electronic structure calculations.
 https://doi.org/10.1063/5.0007045

 Schuett, Ole; Messmer, Peter; Hutter, Juerg; VandeVondele, Joost. 
 Electronic Structure Calculations on Graphics Processing Units, John
 Wiley & Sons, Ltd, 173-190 (2016). 
 GPU-Accelerated Sparse Matrix-Matrix Multiplication for
 Linear Scaling Density Functional Theory.
 https://doi.org/10.1002/9781118670712.ch8

 Heinecke, A; Henry, G; Hutchinson, M; Pabst, H. 
 Proceedings of Intl. Supercomputing Conference, 981-991 (2016). 
 LIBXSMM: Accelerating Small Matrix Multiplications
 by Runtime Code Generation.
 https://doi.org/10.1109/SC.2016.83

 Borstnik, U; VandeVondele, J; Weber, V; Hutter, J. 
 PARALLEL COMPUTING, 40 (5-6), 47-58 (2014). 
 Sparse matrix multiplication: The distributed block-compressed sparse
 row library.
 https://doi.org/10.1016/j.parco.2014.03.012

 Hutter, J; Iannuzzi, M; Schiffmann, F; VandeVondele, J. 
 WIREs Comput Mol Sci., 4 (1), 15-25 (2014). 
 CP2K: atomistic simulations of condensed matter systems.
 https://doi.org/10.1002/wcms.1159

 Guidon, M; Hutter, J; VandeVondele, J. 
 JOURNAL OF CHEMICAL THEORY AND COMPUTATION, 5 (11), 3010-3021 (2009). 
 Robust Periodic Hartree-Fock Exchange for Large-Scale Simulations Using
 Gaussian Basis Sets.
 https://doi.org/10.1021/ct900494g

 Guidon, M; Schiffmann, F; Hutter, J; VandeVondele, J. 
 JOURNAL OF CHEMICAL PHYSICS, 128 (21), 214104 (2008). 
 Ab initio molecular dynamics using hybrid density functionals.
 https://doi.org/10.1063/1.2931945

 Frigo, M; Johnson, SG. 
 PROCEEDINGS OF THE IEEE, 93 (2), 216-231 (2005). 
 The design and implementation of FFTW3.
 https://doi.org/10.1109/JPROC.2004.840301

 Iannuzzi, M; Chassaing, T; Wallman, T; Hutter, J. 
 CHIMIA, 59 (7-8), 499-503 (2005). 
 Ground and excited state density functional calculations with the
 Gaussian and augmented-plane-wave method.
 https://doi.org/10.2533/000942905777676164

 VandeVondele, J; Hutter, J. 
 JOURNAL OF CHEMICAL PHYSICS, 118 (10), 4365-4369 (2003). 
 An efficient orbital transformation method for electronic structure
 calculations.
 https://doi.org/10.1063/1.1543154

 Martin,Richard L.. 
 The Journal of Chemical Physics, 118 (11), 4775-4777 (2003). 
 Natural transition orbitals.
 https://doi.org/10.1063/1.1558471

 Lippert, G; Hutter, J; Parrinello, M. 
 THEORETICAL CHEMISTRY ACCOUNTS, 103 (2), 124-140 (1999). 
 The Gaussian and augmented-plane-wave density functional method for ab
 initio molecular dynamics simulations.
 https://doi.org/10.1007/s002140050523

 Krack, M; Parrinello, M. 
 PHYSICAL CHEMISTRY CHEMICAL PHYSICS, 2 (10), 2105-2112 (2000). 
 All-electron ab-initio molecular dynamics.
 https://doi.org/10.1039/b001167n

 Martyna, GJ; Tuckerman, ME. 
 JOURNAL OF CHEMICAL PHYSICS, 110 (6), 2810-2821 (1999). 
 A reciprocal space based method for treating long range interactions in
 ab initio and force-field-based calculations in clusters.
 https://doi.org/10.1063/1.477923

 Perdew, JP; Burke, K; Ernzerhof, M. 
 PHYSICAL REVIEW LETTERS, 77 (18), 3865-3868 (1996). 
 Generalized gradient approximation made simple.
 https://doi.org/10.1103/PhysRevLett.77.3865


 -------------------------------------------------------------------------------
 -                                                                             -
 -                                T I M I N G                                  -
 -                                                                             -
 -------------------------------------------------------------------------------
 SUBROUTINE                       CALLS  ASD         SELF TIME        TOTAL TIME
                                MAXIMUM       AVERAGE  MAXIMUM  AVERAGE  MAXIMUM
 CP2K                                 1  1.0    0.043    0.061  202.942  203.197
 qs_energies                          1  2.0    0.010    0.011  201.272  201.524
 qs_energies_properties               1  3.0    0.000    0.000  127.676  127.836
 tddfpt                               1  4.0    0.027    0.029  127.676  127.836
 tddfpt_soc_energies                  1  5.0    0.016    0.023  127.289  127.448
 tddfpt_energies                      2  6.0    0.002    0.044  126.665  126.823
 tddfpt_davidson_solver               4  7.0    0.001    0.002  122.958  123.112
 tddfpt_compute_Aop_evects           14  8.0    0.018    0.022  120.101  120.251
 fhxc_kernel                         14  9.0    0.007    0.011   97.136   97.258
 scf_env_do_scf                       1  3.0    0.000    0.000   71.703   71.793
 rs_pw_transfer                    2013 11.8    0.016    0.022   65.442   67.404
 scf_env_do_scf_inner_loop           32  4.0    0.001    0.002   52.966   53.032
 qs_ks_update_qs_env                 34  5.0    0.000    0.001   51.551   51.681
 rebuild_ks_matrix                   32  6.0    0.000    0.000   51.547   51.678
 qs_ks_build_kohn_sham_matrix        32  7.0    0.008    0.013   51.547   51.677
 mp_waitany                       32634 13.7   38.794   43.506   38.794   43.506
 integrate_four_center              312 10.8    2.862    5.932   37.342   37.428
 integrate_v_rspace                 172  9.8    0.005    0.007   35.741   36.935
 potential_pw2rs                    172 10.8    0.012    0.018   35.098   35.524
 qs_rho_update_rho_low              175  9.0    0.003    0.005   31.207   31.503
 calculate_rho_elec                 175 10.0    0.308    0.386   30.007   30.304
 pw_transfer                       3991 12.1    0.151    0.194   26.676   28.242
 fft_wrap_pw1pw2                   3613 13.2    0.018    0.026   26.477   28.074
 density_rs2pw                      175 11.0    0.010    0.018   26.823   27.667
 mp_waitall_1                    369581 14.3   18.853   27.572   18.853   27.572
 fft3d_ps                          3613 15.2    7.331    8.676   25.342   27.099
 fft_wrap_pw1pw2_600               2224 14.3    0.357    0.438   24.576   26.186
 prepare_gapw_den                   174  9.6    0.004    0.006   25.922   25.949
 tddfpt_apply_hfx                    14  9.0    0.003    0.006   22.047   22.075
 rs_pw_transfer_PW2RS_600           275 12.5    1.511    1.660   21.170   21.645
 rs_pw_transfer_RS2PW_600           350 12.8    1.885    2.118   18.684   20.944
 mp_alltoall_z22v                  3613 17.2   16.775   20.648   16.775   20.648
 tddft_hfx_matrix                   280 10.0    0.003    0.005   19.636   19.694
 dbcsr_multiply_generic            1946 10.9    0.101    0.163   15.852   19.362
 init_scf_loop                        2  4.0    0.000    0.000   18.736   18.759
 mp_sum_d                          2426  9.6   15.580   17.741   15.580   17.741
 hfx_ks_matrix                       32  8.0    0.001    0.001   17.713   17.738
 integrate_vhg0_rspace              102 10.1    0.215    0.308   16.207   16.339
 put_rho0_on_grid                   174 10.6    0.397    0.587   15.927   15.954
 tddfpt_apply_coulomb                70 10.0    0.001    0.002   15.397   15.778
 multiply_cannon                   1946 11.9    0.143    0.199    8.823   15.633
 yz_to_x                           1041 16.7    0.138    0.228   11.676   14.752
 integrate_four_center_main         312 11.8    0.117    4.369    9.371   14.744
 integrate_four_center_bin        63653 12.8    9.254   14.593    9.254   14.593
 calculate_xc_2nd_deriv_atom        140 10.0    0.199    4.215    0.599   14.068
 multiply_cannon_loop              1946 12.9    0.236    0.413    6.384   13.414
 mp_sum_l                          8176 11.3    8.334   12.752    8.334   12.752
 gaVxcgb_GC                         344 10.6    0.430   12.515    0.430   12.515
 tddfpt_apply_xc_analytic           140 10.0    0.102    0.120   11.918   12.000
 xc_pw_derive                      1251 11.7    0.006    0.010   10.468   11.997
 rs_pw_transfer_RS2PW_200           175 13.0    0.305    0.405    9.085   11.213
 mp_sync                           2355 13.8    6.655   11.199    6.655   11.199
 multiply_cannon_metrocomm3       31136 13.9    0.202    0.375    3.010   10.607
 sum_up_and_integrate                32  8.0    0.016    0.020   10.107   10.270
 qs_scf_new_mos                      32  5.0    0.000    0.000    9.688    9.879
 qs_scf_loop_do_ot                   32  6.0    0.000    0.001    9.688    9.878
 mp_sum_dm                         4637 11.0    9.276    9.833    9.276    9.833
 ot_scf_mini                         32  7.0    0.001    0.001    9.216    9.394
 cp_dbcsr_sm_fm_multiply            885  9.5    0.020    0.033    8.906    9.102
 rs_pw_transfer_PW2RS_200           172 12.8    0.258    0.345    7.386    8.524
 multiply_cannon_metrocomm1       31136 13.9    0.116    0.217    2.172    8.447
 calculate_rho_atom                 522 10.6    2.713    8.292    2.714    8.292
 calc_screening_functions             1 10.0    2.733    3.680    6.085    8.084
 xc_pw_divergence                   172 11.6    0.003    0.004    6.169    7.689
 pw_poisson_solve                   102 10.1    0.026    0.029    7.277    7.651
 powell_optimize                1126099 11.0    5.633    7.402    5.633    7.402
 pw_integral_ab                     102 11.1    0.218    0.232    7.022    7.401
 xc_calc_2nd_deriv_analytical       700 11.1    2.030    2.562    7.059    7.177
 mp_isend_dv                      82605 14.6    4.462    6.869    4.462    6.869
 mp_sum_dv                         6325 11.1    5.808    6.752    5.808    6.752
 ot_mini                             32  8.0    0.000    0.000    6.632    6.742
 cp_dbcsr_sm_fm_multiply_core       885 10.5    0.003    0.006    4.870    6.407
 integrate_four_center_load         312 11.8    0.001    0.001    3.485    6.061
 hfx_load_balance                     1 11.0    0.000    0.000    3.484    6.060
 hfx_load_balance_range               1 12.0    0.000    0.015    3.423    5.999
 mp_alltoall_i22                   3890 12.5    3.507    5.756    3.507    5.756
 copy_dbcsr_to_fm                   970 10.4    0.016    0.027    3.706    5.612
 x_to_yz                           1184 15.9    0.138    0.208    4.866    5.512
 calc_pair_dist_radii                 1 10.0    1.644    2.350    3.924    5.347
 qs_ot_get_derivative                32  9.0    0.000    0.001    4.979    5.264
 rs_pw_transfer_PW2RS_70            172 12.8    0.196    0.295    4.361    5.154
 dbcsr_desymmetrize_deep            970 11.4    0.026    0.049    2.746    4.667
 rs_grid_zero                       724 12.8    4.149    4.391    4.149    4.391
 mp_sendrecv_dv                   66675 14.0    3.675    4.068    3.675    4.068
 -------------------------------------------------------------------------------

 The number of warnings for this run is : 1
 
 -------------------------------------------------------------------------------
  **** **** ******  **  PROGRAM ENDED AT                 2023-10-05 14:42:15.309
 ***** ** ***  *** **   PROGRAM RAN ON                                      n106
 **    ****   ******    PROGRAM RAN BY                                  suphc355
 ***** **    ** ** **   PROGRAM PROCESS ID                               1361147
  **** **  *******  **  PROGRAM STOPPED IN /work_beegfs/suphc355/pbe0_bm_final/d
                                           ithiin/cp2k
