 DBCSR| CPU Multiplication driver                                           XSMM (U)
 DBCSR| Multrec recursion limit                                              512 (U)
 DBCSR| Multiplication stack size                                           1000 (D)
 DBCSR| Maximum elements for images                                    UNLIMITED (U)
 DBCSR| Multiplicative factor virtual images                                   1 (U)
 DBCSR| Use multiplication densification                                       T (D)
 DBCSR| Multiplication size stacks                                             3 (U)
 DBCSR| Use memory pool for CPU allocation                                     F (U)
 DBCSR| Number of 3D layers                                               SINGLE (U)
 DBCSR| Use MPI memory allocation                                              F (U)
 DBCSR| Use RMA algorithm                                                      F (U)
 DBCSR| Use Communication thread                                               T (U)
 DBCSR| Communication thread load                                             83 (D)
 DBCSR| MPI: My process id                                                     0
 DBCSR| MPI: Number of processes                                             256
 DBCSR| OMP: Current number of threads                                         2
 DBCSR| OMP: Max number of threads                                             2
 DBCSR| Split modifier for TAS multiplication algorithm                  1.0E+00 (U)


  **** **** ******  **  PROGRAM STARTED AT               2024-03-08 13:10:01.875
 ***** ** ***  *** **   PROGRAM STARTED ON                           nesh-srp149
 **    ****   ******    PROGRAM STARTED BY                              suphc355
 ***** **    ** ** **   PROGRAM PROCESS ID                               2123407
  **** **  *******  **  PROGRAM STARTED IN /gxfs_work/cau/suphc355/MOFs/CAU7_TAB
                                           A/SOC/DZ

 CP2K| version string:                 CP2K version 2024.1 (Development Version)
 CP2K| source code revision number:                                  git:b6f9133
 CP2K| cp2kflags: omp libint fftw3 libxc libgrpp parallel mpi_f08 scalapack cosm
 CP2K|            a xsmm spglib mkl
 CP2K| is freely available from                            https://www.cp2k.org/
 CP2K| Program compiled at                          Fr 26. Jan 09:14:30 CET 2024
 CP2K| Program compiled on                                           nesh-login3
 CP2K| Program compiled for                                                local
 CP2K| Data directory path            /gxfs_home/cau/suphc355/software/cp2k/data
 CP2K| Input file name                                                soc_dz.inp
 
 GLOBAL| Force Environment number                                              1
 GLOBAL| Basis set file name                                        BASIS_MOLOPT
 GLOBAL| Potential file name                                  GTH_SOC_POTENTIALS
 GLOBAL| MM Potential file name                                     MM_POTENTIAL
 GLOBAL| Coordinate file name                                         opt_dz.xyz
 GLOBAL| Method name                                                        CP2K
 GLOBAL| Project name                                                  CAU7_TABA
 GLOBAL| Run type                                                         ENERGY
 GLOBAL| FFT library                                                       FFTW3
 GLOBAL| Diagonalization library                                       ScaLAPACK
 GLOBAL| DGEMM library                                                      BLAS
 GLOBAL| Orthonormality check for eigenvectors                          DISABLED
 GLOBAL| Matrix multiplication library                                     COSMA
 GLOBAL| All-to-all communication in single precision                          F
 GLOBAL| FFTs using library dependent lengths                                  F
 GLOBAL| Grid backend                                                       AUTO
 GLOBAL| Global print level                                               MEDIUM
 GLOBAL| MPI I/O enabled                                                       T
 GLOBAL| Total number of message passing processes                           256
 GLOBAL| Number of threads for this process                                    2
 GLOBAL| This output is from process                                           0
 GLOBAL| Stack size for threads created by OpenMP (OMP_STACKSIZE)        default
 GLOBAL| CPU model name                              Intel(R) Xeon(R) Gold 6426Y
 GLOBAL| CPUID                                                              1003

 MEMORY| system memory details [Kb]
 MEMORY|                        rank 0           min           max       average
 MEMORY| MemTotal            263786136     263785328     263786136     263785833
 MEMORY| MemFree             243240064     240978988     243240316     241859398
 MEMORY| Buffers                  5592          5592       1233304        922491
 MEMORY| Cached                 397536        397432       1244752        882224
 MEMORY| Slab                   806992        620868        948304        800170
 MEMORY| SReclaimable           101172        101172        283880        220208
 MEMORY| MemLikelyFree       243744364     243715884     244200080     243884323


 *** Fundamental physical constants (SI units) ***

 *** Literature: B. J. Mohr and B. N. Taylor,
 ***             CODATA recommended values of the fundamental physical
 ***             constants: 2006, Web Version 5.1
 ***             http://physics.nist.gov/constants

 Speed of light in vacuum [m/s]                             2.99792458000000E+08
 Magnetic constant or permeability of vacuum [N/A**2]       1.25663706143592E-06
 Electric constant or permittivity of vacuum [F/m]          8.85418781762039E-12
 Planck constant (h) [J*s]                                  6.62606896000000E-34
 Planck constant (h-bar) [J*s]                              1.05457162825177E-34
 Elementary charge [C]                                      1.60217648700000E-19
 Electron mass [kg]                                         9.10938215000000E-31
 Electron g factor [ ]                                     -2.00231930436220E+00
 Proton mass [kg]                                           1.67262163700000E-27
 Fine-structure constant                                    7.29735253760000E-03
 Rydberg constant [1/m]                                     1.09737315685270E+07
 Avogadro constant [1/mol]                                  6.02214179000000E+23
 Boltzmann constant [J/K]                                   1.38065040000000E-23
 Atomic mass unit [kg]                                      1.66053878200000E-27
 Bohr radius [m]                                            5.29177208590000E-11

 *** Conversion factors ***

 [u] -> [a.u.]                                              1.82288848426455E+03
 [Angstrom] -> [Bohr] = [a.u.]                              1.88972613288564E+00
 [a.u.] = [Bohr] -> [Angstrom]                              5.29177208590000E-01
 [a.u.] -> [s]                                              2.41888432650478E-17
 [a.u.] -> [fs]                                             2.41888432650478E-02
 [a.u.] -> [J]                                              4.35974393937059E-18
 [a.u.] -> [N]                                              8.23872205491840E-08
 [a.u.] -> [K]                                              3.15774647902944E+05
 [a.u.] -> [kJ/mol]                                         2.62549961709828E+03
 [a.u.] -> [kcal/mol]                                       6.27509468713739E+02
 [a.u.] -> [Pa]                                             2.94210107994716E+13
 [a.u.] -> [bar]                                            2.94210107994716E+08
 [a.u.] -> [atm]                                            2.90362800883016E+08
 [a.u.] -> [eV]                                             2.72113838565563E+01
 [a.u.] -> [Hz]                                             6.57968392072181E+15
 [a.u.] -> [1/cm] (wave numbers)                            2.19474631370540E+05
 [a.u./Bohr**2] -> [1/cm]                                   5.14048714338585E+03
 

 CELL_TOP| Volume [angstrom^3]:                                      3351.133038
 CELL_TOP| Vector a [angstrom    31.001     0.000     0.000   |a| =    31.000600
 CELL_TOP| Vector b [angstrom     0.000    27.623     0.000   |b| =    27.623200
 CELL_TOP| Vector c [angstrom     0.000     0.000     3.913   |c| =     3.913340
 CELL_TOP| Angle (b,c), alpha [degree]:                                90.000000
 CELL_TOP| Angle (a,c), beta  [degree]:                                90.000000
 CELL_TOP| Angle (a,b), gamma [degree]:                                90.000000
 CELL_TOP| Numerically orthorhombic:                                         YES
 CELL_TOP| Periodicity                                                       XYZ

 CELL| Volume [angstrom^3]:                                          3351.133038
 CELL| Vector a [angstrom]:      31.001     0.000     0.000   |a| =    31.000600
 CELL| Vector b [angstrom]:       0.000    27.623     0.000   |b| =    27.623200
 CELL| Vector c [angstrom]:       0.000     0.000     3.913   |c| =     3.913340
 CELL| Angle (b,c), alpha [degree]:                                    90.000000
 CELL| Angle (a,c), beta  [degree]:                                    90.000000
 CELL| Angle (a,b), gamma [degree]:                                    90.000000
 CELL| Numerically orthorhombic:                                             YES
 CELL| Periodicity                                                           XYZ

 CELL_REF| Volume [angstrom^3]:                                      3351.133038
 CELL_REF| Vector a [angstrom    31.001     0.000     0.000   |a| =    31.000600
 CELL_REF| Vector b [angstrom     0.000    27.623     0.000   |b| =    27.623200
 CELL_REF| Vector c [angstrom     0.000     0.000     3.913   |c| =     3.913340
 CELL_REF| Angle (b,c), alpha [degree]:                                90.000000
 CELL_REF| Angle (a,c), beta  [degree]:                                90.000000
 CELL_REF| Angle (a,b), gamma [degree]:                                90.000000
 CELL_REF| Numerically orthorhombic:                                         YES
 CELL_REF| Periodicity                                                       XYZ

 *******************************************************************************
 *******************************************************************************
 **                                                                           **
 **     #####                         ##              ##                      **
 **    ##   ##            ##          ##              ##                      **
 **   ##     ##                       ##            ######                    **
 **   ##     ##  ##   ##  ##   #####  ##  ##   ####   ##    #####    #####    **
 **   ##     ##  ##   ##  ##  ##      ## ##   ##      ##   ##   ##  ##   ##   **
 **   ##  ## ##  ##   ##  ##  ##      ####     ###    ##   ######   ######    **
 **    ##  ###   ##   ##  ##  ##      ## ##      ##   ##   ##       ##        **
 **     #######   #####   ##   #####  ##  ##  ####    ##    #####   ##        **
 **           ##                                                    ##        **
 **                                                                           **
 **                                                ... make the atoms dance   **
 **                                                                           **
 **            Copyright (C) by CP2K developers group (2000-2024)             **
 **                      J. Chem. Phys. 152, 194103 (2020)                    **
 **                                                                           **
 *******************************************************************************

 DFT| Spin restricted Kohn-Sham (RKS) calculation                            RKS
 DFT| Multiplicity                                                             1
 DFT| Number of spin states                                                    1
 DFT| Charge                                                                   0
 DFT| Self-interaction correction (SIC)                                       NO
 DFT| Cutoffs: density                                              1.000000E-10
 DFT|          gradient                                             1.000000E-10
 DFT|          tau                                                  1.000000E-10
 DFT|          cutoff_smoothing_range                               0.000000E+00
 DFT| XC density smoothing                                                  NONE
 DFT| XC derivatives                                                          PW

 FUNCTIONAL| PBE:
 FUNCTIONAL| J.P.Perdew, K.Burke, M.Ernzerhof, Phys. Rev. Letter, vol. 77, n 18,
 FUNCTIONAL|  pp. 3865-3868, (1996) {spin unpolarized}                          


 QS| Method:                                                                 GPW
 QS| Density plane wave grid type                        NON-SPHERICAL FULLSPACE
 QS| Number of grid levels:                                                    5
 QS| Density cutoff [a.u.]:                                                400.0
 QS| Multi grid cutoff [a.u.]: 1) grid level                               400.0
 QS|                           2) grid level                               133.3
 QS|                           3) grid level                                44.4
 QS|                           4) grid level                                14.8
 QS|                           5) grid level                                 4.9
 QS| Grid level progression factor:                                          3.0
 QS| Relative density cutoff [a.u.]:                                        40.0
 QS| Interaction thresholds: eps_pgf_orb:                                1.0E-30
 QS|                         eps_filter_matrix:                          0.0E+00
 QS|                         eps_core_charge:                            1.0E-17
 QS|                         eps_rho_gspace:                             1.0E-15
 QS|                         eps_rho_rspace:                             1.0E-15
 QS|                         eps_gvg_rspace:                             3.2E-08
 QS|                         eps_ppl:                                    1.0E-02
 QS|                         eps_ppnl:                                   3.2E-10


 ATOMIC KIND INFORMATION

  1. Atomic kind: Bi                                    Number of atoms:       4

     Orbital Basis Set                                    DZVP-MOLOPT-GGA-GTH-q5

       Number of orbital shell sets:                                           1
       Number of orbital shells:                                               5
       Number of primitive Cartesian functions:                                5
       Number of Cartesian basis functions:                                   14
       Number of spherical basis functions:                                   13
       Norm type:                                                              2

       Normalised Cartesian orbitals:

                        Set   Shell   Orbital            Exponent    Coefficient

                          1       1    2s                1.476279      -1.009126
                                                         1.112852       1.669764
                                                         0.244984      -0.649537
                                                         0.041275       0.035417
                                                         0.105231       0.163887

                          1       2    3s                1.476279       0.085849
                                                         1.112852      -0.181606
                                                         0.244984       0.041995
                                                         0.041275       0.011127
                                                         0.105231       0.100930

                          1       3    3px               1.476279      -0.487935
                                                         1.112852       0.925872
                                                         0.244984      -0.364869
                                                         0.041275       0.015489
                                                         0.105231       0.072277
                          1       3    3py               1.476279      -0.487935
                                                         1.112852       0.925872
                                                         0.244984      -0.364869
                                                         0.041275       0.015489
                                                         0.105231       0.072277
                          1       3    3pz               1.476279      -0.487935
                                                         1.112852       0.925872
                                                         0.244984      -0.364869
                                                         0.041275       0.015489
                                                         0.105231       0.072277

                          1       4    4px               1.476279       0.147304
                                                         1.112852      -0.267547
                                                         0.244984       0.084037
                                                         0.041275       0.005523
                                                         0.105231       0.049790
                          1       4    4py               1.476279       0.147304
                                                         1.112852      -0.267547
                                                         0.244984       0.084037
                                                         0.041275       0.005523
                                                         0.105231       0.049790
                          1       4    4pz               1.476279       0.147304
                                                         1.112852      -0.267547
                                                         0.244984       0.084037
                                                         0.041275       0.005523
                                                         0.105231       0.049790

                          1       5    4dx2              1.476279      -0.401062
                                                         1.112852       0.488511
                                                         0.244984      -0.082145
                                                         0.041275      -0.001806
                                                         0.105231      -0.010944
                          1       5    4dxy              1.476279      -0.694660
                                                         1.112852       0.846125
                                                         0.244984      -0.142279
                                                         0.041275      -0.003127
                                                         0.105231      -0.018955
                          1       5    4dxz              1.476279      -0.694660
                                                         1.112852       0.846125
                                                         0.244984      -0.142279
                                                         0.041275      -0.003127
                                                         0.105231      -0.018955
                          1       5    4dy2              1.476279      -0.401062
                                                         1.112852       0.488511
                                                         0.244984      -0.082145
                                                         0.041275      -0.001806
                                                         0.105231      -0.010944
                          1       5    4dyz              1.476279      -0.694660
                                                         1.112852       0.846125
                                                         0.244984      -0.142279
                                                         0.041275      -0.003127
                                                         0.105231      -0.018955
                          1       5    4dz2              1.476279      -0.401062
                                                         1.112852       0.488511
                                                         0.244984      -0.082145
                                                         0.041275      -0.001806
                                                         0.105231      -0.010944

       Atomic covalent radius [Angstrom]:                                  1.460

       Atomic van der Waals radius [Angstrom]:                             2.070

     GTH Potential information for                                       GTH-PBE

       Description:                       Goedecker-Teter-Hutter pseudopotential
                                           Goedecker et al., PRB 54, 1703 (1996)
                                          Hartwigsen et al., PRB 58, 3641 (1998)
                                                      Krack, TCA 114, 145 (2005)

       Gaussian exponent of the core charge distribution:               1.366027
       Electronic configuration (s p d ...):                               2   3

       Parameters of the local part of the GTH pseudopotential:

                          rloc        C1          C2          C3          C4
                        0.605000    7.945757

       Parameters of the non-local part of the GTH (SOC) pseudopotential:

                   l      r(l)      h(i,j,l)
                                    k(i,j,l)
                   0    0.582232    0.643735    2.247616   -1.440601
                                    2.247616   -5.244797    3.719615
                                   -1.440601    3.719615   -2.952353
                   1    0.766394    0.212533    0.379834
                                    0.379834   -0.449426
                                    0.339106   -0.021086
                                   -0.021086    0.024949
                   2    0.965655    0.347298
                                    0.020357

  2. Atomic kind: O                                     Number of atoms:      24

     Orbital Basis Set                                        DZVP-MOLOPT-GTH-q6

       Number of orbital shell sets:                                           1
       Number of orbital shells:                                               5
       Number of primitive Cartesian functions:                                7
       Number of Cartesian basis functions:                                   14
       Number of spherical basis functions:                                   13
       Norm type:                                                              2

       Normalised Cartesian orbitals:

                        Set   Shell   Orbital            Exponent    Coefficient

                          1       1    2s               12.015955      -0.284499
                                                         5.108150      -0.322498
                                                         2.048398       0.148191
                                                         0.832382       0.295475
                                                         0.352316       0.150829
                                                         0.142977       0.015788
                                                         0.046761      -0.000019

                          1       2    3s               12.015955       0.725622
                                                         5.108150       0.644384
                                                         2.048398      -0.157350
                                                         0.832382      -0.853528
                                                         0.352316       0.146068
                                                         0.142977       0.153978
                                                         0.046761       0.000658

                          1       3    3px              12.015955       1.192141
                                                         5.108150       1.354170
                                                         2.048398       0.897267
                                                         0.832382       0.408839
                                                         0.352316       0.116648
                                                         0.142977       0.022184
                                                         0.046761       0.000308
                          1       3    3py              12.015955       1.192141
                                                         5.108150       1.354170
                                                         2.048398       0.897267
                                                         0.832382       0.408839
                                                         0.352316       0.116648
                                                         0.142977       0.022184
                                                         0.046761       0.000308
                          1       3    3pz              12.015955       1.192141
                                                         5.108150       1.354170
                                                         2.048398       0.897267
                                                         0.832382       0.408839
                                                         0.352316       0.116648
                                                         0.142977       0.022184
                                                         0.046761       0.000308

                          1       4    4px              12.015955      -1.062381
                                                         5.108150      -1.285791
                                                         2.048398      -0.727000
                                                         0.832382      -0.522764
                                                         0.352316       0.182681
                                                         0.142977       0.087560
                                                         0.046761       0.000981
                          1       4    4py              12.015955      -1.062381
                                                         5.108150      -1.285791
                                                         2.048398      -0.727000
                                                         0.832382      -0.522764
                                                         0.352316       0.182681
                                                         0.142977       0.087560
                                                         0.046761       0.000981
                          1       4    4pz              12.015955      -1.062381
                                                         5.108150      -1.285791
                                                         2.048398      -0.727000
                                                         0.832382      -0.522764
                                                         0.352316       0.182681
                                                         0.142977       0.087560
                                                         0.046761       0.000981

                          1       5    4dx2             12.015955       1.125955
                                                         5.108150       1.160468
                                                         2.048398       0.999335
                                                         0.832382       0.756334
                                                         0.352316       0.048604
                                                         0.142977       0.010378
                                                         0.046761      -0.000027
                          1       5    4dxy             12.015955       1.950212
                                                         5.108150       2.009990
                                                         2.048398       1.730899
                                                         0.832382       1.310009
                                                         0.352316       0.084185
                                                         0.142977       0.017974
                                                         0.046761      -0.000046
                          1       5    4dxz             12.015955       1.950212
                                                         5.108150       2.009990
                                                         2.048398       1.730899
                                                         0.832382       1.310009
                                                         0.352316       0.084185
                                                         0.142977       0.017974
                                                         0.046761      -0.000046
                          1       5    4dy2             12.015955       1.125955
                                                         5.108150       1.160468
                                                         2.048398       0.999335
                                                         0.832382       0.756334
                                                         0.352316       0.048604
                                                         0.142977       0.010378
                                                         0.046761      -0.000027
                          1       5    4dyz             12.015955       1.950212
                                                         5.108150       2.009990
                                                         2.048398       1.730899
                                                         0.832382       1.310009
                                                         0.352316       0.084185
                                                         0.142977       0.017974
                                                         0.046761      -0.000046
                          1       5    4dz2             12.015955       1.125955
                                                         5.108150       1.160468
                                                         2.048398       0.999335
                                                         0.832382       0.756334
                                                         0.352316       0.048604
                                                         0.142977       0.010378
                                                         0.046761      -0.000027

       Atomic covalent radius [Angstrom]:                                  0.730

       Atomic van der Waals radius [Angstrom]:                             1.520

     GTH Potential information for                                       GTH-PBE

       Description:                       Goedecker-Teter-Hutter pseudopotential
                                           Goedecker et al., PRB 54, 1703 (1996)
                                          Hartwigsen et al., PRB 58, 3641 (1998)
                                                      Krack, TCA 114, 145 (2005)

       Gaussian exponent of the core charge distribution:               8.360253
       Electronic configuration (s p d ...):                               2   4

       Parameters of the local part of the GTH pseudopotential:

                          rloc        C1          C2          C3          C4
                        0.244554  -16.667215    2.487311

       Parameters of the non-local part of the GTH (SOC) pseudopotential:

                   l      r(l)      h(i,j,l)
                                    k(i,j,l)
                   0    0.220956   18.337458
                   1    0.211332    0.000000
                                    0.007559

  3. Atomic kind: N                                     Number of atoms:      12

     Orbital Basis Set                                        DZVP-MOLOPT-GTH-q5

       Number of orbital shell sets:                                           1
       Number of orbital shells:                                               5
       Number of primitive Cartesian functions:                                7
       Number of Cartesian basis functions:                                   14
       Number of spherical basis functions:                                   13
       Norm type:                                                              2

       Normalised Cartesian orbitals:

                        Set   Shell   Orbital            Exponent    Coefficient

                          1       1    2s                9.042730      -0.237404
                                                         3.882225      -0.265910
                                                         1.512880       0.102064
                                                         0.586631       0.295369
                                                         0.222851       0.088647
                                                         0.084583       0.003860
                                                         0.039194       0.000722

                          1       2    3s                9.042730       0.259152
                                                         3.882225       0.251432
                                                         1.512880      -0.043896
                                                         0.586631      -0.328079
                                                         0.222851       0.175857
                                                         0.084583       0.069169
                                                         0.039194       0.004207

                          1       3    3px               9.042730       0.822162
                                                         3.882225       0.990771
                                                         1.512880       0.665657
                                                         0.586631       0.321705
                                                         0.222851       0.063706
                                                         0.084583       0.004155
                                                         0.039194      -0.000005
                          1       3    3py               9.042730       0.822162
                                                         3.882225       0.990771
                                                         1.512880       0.665657
                                                         0.586631       0.321705
                                                         0.222851       0.063706
                                                         0.084583       0.004155
                                                         0.039194      -0.000005
                          1       3    3pz               9.042730       0.822162
                                                         3.882225       0.990771
                                                         1.512880       0.665657
                                                         0.586631       0.321705
                                                         0.222851       0.063706
                                                         0.084583       0.004155
                                                         0.039194      -0.000005

                          1       4    4px               9.042730      -0.251449
                                                         3.882225      -0.215479
                                                         1.512880      -0.200519
                                                         0.586631      -0.125283
                                                         0.222851       0.136219
                                                         0.084583       0.034362
                                                         0.039194       0.000879
                          1       4    4py               9.042730      -0.251449
                                                         3.882225      -0.215479
                                                         1.512880      -0.200519
                                                         0.586631      -0.125283
                                                         0.222851       0.136219
                                                         0.084583       0.034362
                                                         0.039194       0.000879
                          1       4    4pz               9.042730      -0.251449
                                                         3.882225      -0.215479
                                                         1.512880      -0.200519
                                                         0.586631      -0.125283
                                                         0.222851       0.136219
                                                         0.084583       0.034362
                                                         0.039194       0.000879

                          1       5    4dx2              9.042730       1.099742
                                                         3.882225       0.532064
                                                         1.512880       0.873643
                                                         0.586631       0.456348
                                                         0.222851       0.017840
                                                         0.084583      -0.000857
                                                         0.039194      -0.000086
                          1       5    4dxy              9.042730       1.904809
                                                         3.882225       0.921562
                                                         1.512880       1.513195
                                                         0.586631       0.790419
                                                         0.222851       0.030900
                                                         0.084583      -0.001484
                                                         0.039194      -0.000150
                          1       5    4dxz              9.042730       1.904809
                                                         3.882225       0.921562
                                                         1.512880       1.513195
                                                         0.586631       0.790419
                                                         0.222851       0.030900
                                                         0.084583      -0.001484
                                                         0.039194      -0.000150
                          1       5    4dy2              9.042730       1.099742
                                                         3.882225       0.532064
                                                         1.512880       0.873643
                                                         0.586631       0.456348
                                                         0.222851       0.017840
                                                         0.084583      -0.000857
                                                         0.039194      -0.000086
                          1       5    4dyz              9.042730       1.904809
                                                         3.882225       0.921562
                                                         1.512880       1.513195
                                                         0.586631       0.790419
                                                         0.222851       0.030900
                                                         0.084583      -0.001484
                                                         0.039194      -0.000150
                          1       5    4dz2              9.042730       1.099742
                                                         3.882225       0.532064
                                                         1.512880       0.873643
                                                         0.586631       0.456348
                                                         0.222851       0.017840
                                                         0.084583      -0.000857
                                                         0.039194      -0.000086

       Atomic covalent radius [Angstrom]:                                  0.750

       Atomic van der Waals radius [Angstrom]:                             1.550

     GTH Potential information for                                       GTH-PBE

       Description:                       Goedecker-Teter-Hutter pseudopotential
                                           Goedecker et al., PRB 54, 1703 (1996)
                                          Hartwigsen et al., PRB 58, 3641 (1998)
                                                      Krack, TCA 114, 145 (2005)

       Gaussian exponent of the core charge distribution:               6.208322
       Electronic configuration (s p d ...):                               2   3

       Parameters of the local part of the GTH pseudopotential:

                          rloc        C1          C2          C3          C4
                        0.283791  -12.415226    1.868096

       Parameters of the non-local part of the GTH (SOC) pseudopotential:

                   l      r(l)      h(i,j,l)
                                    k(i,j,l)
                   0    0.255405   13.630263
                   1    0.245495    0.000000
                                    0.004148

  4. Atomic kind: C                                     Number of atoms:      96

     Orbital Basis Set                                        DZVP-MOLOPT-GTH-q4

       Number of orbital shell sets:                                           1
       Number of orbital shells:                                               5
       Number of primitive Cartesian functions:                                7
       Number of Cartesian basis functions:                                   14
       Number of spherical basis functions:                                   13
       Norm type:                                                              2

       Normalised Cartesian orbitals:

                        Set   Shell   Orbital            Exponent    Coefficient

                          1       1    2s                6.132625      -0.263661
                                                         2.625196      -0.231112
                                                         1.045457       0.042712
                                                         0.478316       0.306085
                                                         0.178617       0.065483
                                                         0.075145       0.000568
                                                         0.030287       0.000417

                          1       2    3s                6.132625       0.131937
                                                         2.625196       0.414269
                                                         1.045457      -0.593590
                                                         0.478316       0.644922
                                                         0.178617       0.069203
                                                         0.075145      -0.145101
                                                         0.030287       0.008247

                          1       3    3px               6.132625       0.562677
                                                         2.625196       0.633910
                                                         1.045457       0.379157
                                                         0.478316       0.235193
                                                         0.178617       0.052379
                                                         0.075145       0.003677
                                                         0.030287       0.000105
                          1       3    3py               6.132625       0.562677
                                                         2.625196       0.633910
                                                         1.045457       0.379157
                                                         0.478316       0.235193
                                                         0.178617       0.052379
                                                         0.075145       0.003677
                                                         0.030287       0.000105
                          1       3    3pz               6.132625       0.562677
                                                         2.625196       0.633910
                                                         1.045457       0.379157
                                                         0.478316       0.235193
                                                         0.178617       0.052379
                                                         0.075145       0.003677
                                                         0.030287       0.000105

                          1       4    4px               6.132625      -0.472364
                                                         2.625196      -0.221326
                                                         1.045457      -0.481781
                                                         0.478316       0.135466
                                                         0.178617       0.072281
                                                         0.075145       0.024920
                                                         0.030287       0.002706
                          1       4    4py               6.132625      -0.472364
                                                         2.625196      -0.221326
                                                         1.045457      -0.481781
                                                         0.478316       0.135466
                                                         0.178617       0.072281
                                                         0.075145       0.024920
                                                         0.030287       0.002706
                          1       4    4pz               6.132625      -0.472364
                                                         2.625196      -0.221326
                                                         1.045457      -0.481781
                                                         0.478316       0.135466
                                                         0.178617       0.072281
                                                         0.075145       0.024920
                                                         0.030287       0.002706

                          1       5    4dx2              6.132625       0.874783
                                                         2.625196       0.375772
                                                         1.045457       0.653959
                                                         0.478316       0.191007
                                                         0.178617       0.018656
                                                         0.075145       0.003649
                                                         0.030287      -0.000011
                          1       5    4dxy              6.132625       1.515169
                                                         2.625196       0.650856
                                                         1.045457       1.132690
                                                         0.478316       0.330834
                                                         0.178617       0.032314
                                                         0.075145       0.006321
                                                         0.030287      -0.000019
                          1       5    4dxz              6.132625       1.515169
                                                         2.625196       0.650856
                                                         1.045457       1.132690
                                                         0.478316       0.330834
                                                         0.178617       0.032314
                                                         0.075145       0.006321
                                                         0.030287      -0.000019
                          1       5    4dy2              6.132625       0.874783
                                                         2.625196       0.375772
                                                         1.045457       0.653959
                                                         0.478316       0.191007
                                                         0.178617       0.018656
                                                         0.075145       0.003649
                                                         0.030287      -0.000011
                          1       5    4dyz              6.132625       1.515169
                                                         2.625196       0.650856
                                                         1.045457       1.132690
                                                         0.478316       0.330834
                                                         0.178617       0.032314
                                                         0.075145       0.006321
                                                         0.030287      -0.000019
                          1       5    4dz2              6.132625       0.874783
                                                         2.625196       0.375772
                                                         1.045457       0.653959
                                                         0.478316       0.191007
                                                         0.178617       0.018656
                                                         0.075145       0.003649
                                                         0.030287      -0.000011

       Atomic covalent radius [Angstrom]:                                  0.770

       Atomic van der Waals radius [Angstrom]:                             1.700

     GTH Potential information for                                       GTH-PBE

       Description:                       Goedecker-Teter-Hutter pseudopotential
                                           Goedecker et al., PRB 54, 1703 (1996)
                                          Hartwigsen et al., PRB 58, 3641 (1998)
                                                      Krack, TCA 114, 145 (2005)

       Gaussian exponent of the core charge distribution:               4.364419
       Electronic configuration (s p d ...):                               2   2

       Parameters of the local part of the GTH pseudopotential:

                          rloc        C1          C2          C3          C4
                        0.338471   -8.803674    1.339211

       Parameters of the non-local part of the GTH (SOC) pseudopotential:

                   l      r(l)      h(i,j,l)
                                    k(i,j,l)
                   0    0.302576    9.622487
                   1    0.291507    0.000000
                                    0.002073

  5. Atomic kind: H                                     Number of atoms:      48

     Orbital Basis Set                                        DZVP-MOLOPT-GTH-q1

       Number of orbital shell sets:                                           1
       Number of orbital shells:                                               3
       Number of primitive Cartesian functions:                                7
       Number of Cartesian basis functions:                                    5
       Number of spherical basis functions:                                    5
       Norm type:                                                              2

       Normalised Cartesian orbitals:

                        Set   Shell   Orbital            Exponent    Coefficient

                          1       1    2s               11.478000       0.129129
                                                         3.700759       0.177012
                                                         1.446884       0.141285
                                                         0.716815       0.245670
                                                         0.247919       0.094768
                                                         0.066918       0.004062
                                                         0.021708      -0.000053

                          1       2    3s               11.478000      -0.079256
                                                         3.700759      -0.152992
                                                         1.446884       0.015066
                                                         0.716815      -0.331234
                                                         0.247919       0.210690
                                                         0.066918       0.058630
                                                         0.021708      -0.003429

                          1       3    3px              11.478000       0.325290
                                                         3.700759       0.187466
                                                         1.446884       0.443300
                                                         0.716815       0.267738
                                                         0.247919       0.088285
                                                         0.066918       0.019092
                                                         0.021708       0.000629
                          1       3    3py              11.478000       0.325290
                                                         3.700759       0.187466
                                                         1.446884       0.443300
                                                         0.716815       0.267738
                                                         0.247919       0.088285
                                                         0.066918       0.019092
                                                         0.021708       0.000629
                          1       3    3pz              11.478000       0.325290
                                                         3.700759       0.187466
                                                         1.446884       0.443300
                                                         0.716815       0.267738
                                                         0.247919       0.088285
                                                         0.066918       0.019092
                                                         0.021708       0.000629

       Atomic covalent radius [Angstrom]:                                  0.320

       Atomic van der Waals radius [Angstrom]:                             1.090

     GTH Potential information for                                       GTH-PBE

       Description:                       Goedecker-Teter-Hutter pseudopotential
                                           Goedecker et al., PRB 54, 1703 (1996)
                                          Hartwigsen et al., PRB 58, 3641 (1998)
                                                      Krack, TCA 114, 145 (2005)

       Gaussian exponent of the core charge distribution:              12.500000
       Electronic configuration (s p d ...):                                   1

       Parameters of the local part of the GTH pseudopotential:

                          rloc        C1          C2          C3          C4
                        0.200000   -4.178900    0.724463


 MOLECULE KIND INFORMATION


 All atoms are their own molecule, skipping detailed information


 TOTAL NUMBERS AND MAXIMUM NUMBERS

  Total number of            - Atomic kinds:                                   5
                             - Atoms:                                        184
                             - Shell sets:                                   184
                             - Shells:                                       824
                             - Primitive Cartesian functions:               1280
                             - Cartesian basis functions:                   2144
                             - Spherical basis functions:                   2008

  Maximum angular momentum of- Orbital basis functions:                        2
                             - Local part of the GTH pseudopotential:          2
                             - Non-local part of the GTH pseudopotential:      4


 MODULE QUICKSTEP: ATOMIC COORDINATES IN ANGSTROM

   Atom Kind Element         X             Y             Z       Z(eff)     Mass
      1    1 Bi   83     28.155147      2.768898      1.619571   5.0000 208.9804
      2    1 Bi   83      2.849048     16.581177      2.230196   5.0000 208.9804
      3    1 Bi   83     12.655143      2.767569      2.238827   5.0000 208.9804
      4    1 Bi   83     18.347869     16.572612      1.621776   5.0000 208.9804
      5    2 O     8     26.529753      0.864802      1.790948   6.0000  15.9994
      6    2 O     8      4.472918     14.676434      2.067195   6.0000  15.9994
      7    2 O     8     11.029796      0.863634      2.070118   6.0000  15.9994
      8    2 O     8     19.974319     14.675257      1.785342   6.0000  15.9994
      9    2 O     8     26.465220      2.242968      3.962145   6.0000  15.9994
     10    2 O     8      4.534965     16.056431     -0.105830   6.0000  15.9994
     11    2 O     8     10.965556      2.242956     -0.102088   6.0000  15.9994
     12    2 O     8     20.036296     16.054984      3.958796   6.0000  15.9994
     13    2 O     8     15.157423      2.300379      2.165803   6.0000  15.9994
     14    2 O     8     15.852664     16.075198      1.707574   6.0000  15.9994
     15    2 O     8     30.657517      2.299649      1.696622   6.0000  15.9994
     16    2 O     8      0.346371     16.108790      2.152723   6.0000  15.9994
     17    2 O     8     13.913640      1.659898     -0.024474   6.0000  15.9994
     18    2 O     8     17.096830     15.429839      3.898884   6.0000  15.9994
     19    2 O     8     29.415234      1.658614      3.886107   6.0000  15.9994
     20    2 O     8      1.590905     15.469852     -0.037375   6.0000  15.9994
     21    2 O     8     18.085509     18.413416      0.106089   6.0000  15.9994
     22    2 O     8     12.912514      4.604648      3.753934   6.0000  15.9994
     23    2 O     8      2.588095     18.416867      3.750727   6.0000  15.9994
     24    2 O     8     28.413630      4.606073      0.103544   6.0000  15.9994
     25    2 O     8     19.402224     18.816052      1.853603   6.0000  15.9994
     26    2 O     8     11.596227      5.004247      2.005610   6.0000  15.9994
     27    2 O     8      3.903309     18.819389      2.002368   6.0000  15.9994
     28    2 O     8     27.098818      5.008037      1.852148   6.0000  15.9994
     29    3 N     7     20.596858     26.827046      1.734684   5.0000  14.0067
     30    3 N     7     10.402750     13.013768      2.128678   5.0000  14.0067
     31    3 N     7      5.097094     26.826015      2.127898   5.0000  14.0067
     32    3 N     7     25.909695     13.016179      1.724668   5.0000  14.0067
     33    3 N     7     19.097698     24.996872      1.829268   5.0000  14.0067
     34    3 N     7     11.893898     11.176638      2.035379   5.0000  14.0067
     35    3 N     7      3.596783     24.996789      2.030137   5.0000  14.0067
     36    3 N     7     27.408574     11.185533      1.823261   5.0000  14.0067
     37    3 N     7     20.711064     25.279904      3.528367   5.0000  14.0067
     38    3 N     7     10.283154     11.466673      0.335057   5.0000  14.0067
     39    3 N     7      5.211974     25.280451      0.333000   5.0000  14.0067
     40    3 N     7     25.793542     11.471354      3.520185   5.0000  14.0067
     41    4 C     6     21.213715     26.306393      2.789083   4.0000  12.0107
     42    4 C     6      9.784425     12.495146      1.074163   4.0000  12.0107
     43    4 C     6      5.714824     26.305630      1.074015   4.0000  12.0107
     44    4 C     6     25.291487     12.496702      2.778792   4.0000  12.0107
     45    4 C     6     22.468872     26.915133      3.213621   4.0000  12.0107
     46    4 C     6      8.531315     13.106488      0.648183   4.0000  12.0107
     47    4 C     6      6.971424     26.912438      0.651097   4.0000  12.0107
     48    4 C     6     24.034637     13.104042      3.201865   4.0000  12.0107
     49    4 C     6     23.090897     26.459841      4.325722   4.0000  12.0107
     50    4 C     6      7.909852     12.650424     -0.464019   4.0000  12.0107
     51    4 C     6      7.593300     26.456666     -0.460947   4.0000  12.0107
     52    4 C     6     23.413094     12.647899      4.313881   4.0000  12.0107
     53    4 C     6     24.126296     27.188593      1.049615   4.0000  12.0107
     54    4 C     6      6.874757     13.378715      2.811369   4.0000  12.0107
     55    4 C     6      8.629909     27.184117      2.815800   4.0000  12.0107
     56    4 C     6     22.375704     13.373986      1.037586   4.0000  12.0107
     57    4 C     6     24.699714      0.645872      0.314589   4.0000  12.0107
     58    4 C     6      6.300871     14.458977      3.545801   4.0000  12.0107
     59    4 C     6      9.202842      0.641982      3.549666   4.0000  12.0107
     60    4 C     6     21.800957     14.454623      0.304054   4.0000  12.0107
     61    4 C     6     24.082719      1.101520      3.115441   4.0000  12.0107
     62    4 C     6      6.917806     14.916100      0.744623   4.0000  12.0107
     63    4 C     6      8.585978      1.098085      0.748895   4.0000  12.0107
     64    4 C     6     22.417903     14.911381      3.105037   4.0000  12.0107
     65    4 C     6     23.051654      0.371371      2.476798   4.0000  12.0107
     66    4 C     6      7.948829     14.186536      1.383895   4.0000  12.0107
     67    4 C     6      7.555630      0.367637      1.388538   4.0000  12.0107
     68    4 C     6     23.448980     14.181984      2.464803   4.0000  12.0107
     69    4 C     6     25.947430      1.275042      0.741848   4.0000  12.0107
     70    4 C     6      5.053652     15.087561      3.116706   4.0000  12.0107
     71    4 C     6     10.448729      1.273362      3.120072   4.0000  12.0107
     72    4 C     6     20.554979     15.085341      0.734824   4.0000  12.0107
     73    4 C     6     19.445918     26.220105      1.383448   4.0000  12.0107
     74    4 C     6     11.550172     12.400765      2.482051   4.0000  12.0107
     75    4 C     6      3.945575     26.219098      2.478137   4.0000  12.0107
     76    4 C     6     27.060686     12.407788      1.374405   4.0000  12.0107
     77    4 C     6     18.344049     27.008202      0.776088   4.0000  12.0107
     78    4 C     6     12.656108     13.181327      3.091510   4.0000  12.0107
     79    4 C     6      2.843450     27.005976      3.086678   4.0000  12.0107
     80    4 C     6     28.163600     13.192058      0.763937   4.0000  12.0107
     81    4 C     6     18.498763      0.223821     -0.271728   4.0000  12.0107
     82    4 C     6     12.505147     14.020406      4.139407   4.0000  12.0107
     83    4 C     6      2.997916      0.220677      4.135120   4.0000  12.0107
     84    4 C     6     28.009425     14.030220     -0.284349   4.0000  12.0107
     85    4 C     6     17.383408      0.788689     -0.922817   4.0000  12.0107
     86    4 C     6     13.623546     14.575722      4.793725   4.0000  12.0107
     87    4 C     6      1.882512      0.784414      4.787546   4.0000  12.0107
     88    4 C     6     29.125266     14.591788     -0.937856   4.0000  12.0107
     89    4 C     6     16.144506      0.784992     -0.233713   4.0000  12.0107
     90    4 C     6     14.863096     14.564812      4.105807   4.0000  12.0107
     91    4 C     6      0.643705      0.782018      4.097973   4.0000  12.0107
     92    4 C     6     30.363927     14.589341     -0.248202   4.0000  12.0107
     93    4 C     6     15.993009     27.616904      0.855856   4.0000  12.0107
     94    4 C     6     15.011424     13.774274      3.015373   4.0000  12.0107
     95    4 C     6     31.492666     27.614752      3.007676   4.0000  12.0107
     96    4 C     6     -0.484672     13.798149      0.841489   4.0000  12.0107
     97    4 C     6     17.096644     26.980433      1.452219   4.0000  12.0107
     98    4 C     6     13.904325     13.145213      2.417154   4.0000  12.0107
     99    4 C     6      1.595603     26.978004      2.411094   4.0000  12.0107
    100    4 C     6     29.412044     13.161964      1.438201   4.0000  12.0107
    101    4 C     6     15.036005      1.618395     -0.690691   4.0000  12.0107
    102    4 C     6     15.975170     15.391905      4.564547   4.0000  12.0107
    103    4 C     6     30.536455      1.616384      4.553951   4.0000  12.0107
    104    4 C     6      0.469798     15.425192     -0.704882   4.0000  12.0107
    105    4 C     6     19.790781     24.536361      2.860927   4.0000  12.0107
    106    4 C     6     11.200501     10.719986      1.002506   4.0000  12.0107
    107    4 C     6      4.290299     24.537192      0.998369   4.0000  12.0107
    108    4 C     6     26.714852     10.727034      2.855405   4.0000  12.0107
    109    4 C     6     19.530039     23.180407      3.322285   4.0000  12.0107
    110    4 C     6     11.458794      9.364514      0.540334   4.0000  12.0107
    111    4 C     6      4.028633     23.182583      0.534780   4.0000  12.0107
    112    4 C     6     26.976130      9.372639      3.319939   4.0000  12.0107
    113    4 C     6     18.670922     22.298456      2.595076   4.0000  12.0107
    114    4 C     6     12.318459      8.483480      1.267893   4.0000  12.0107
    115    4 C     6      3.169012     22.300778      1.261088   4.0000  12.0107
    116    4 C     6     27.835459      8.490237      2.594132   4.0000  12.0107
    117    4 C     6     18.319937     21.076433      3.217814   4.0000  12.0107
    118    4 C     6     12.672672      7.263492      0.643274   4.0000  12.0107
    119    4 C     6      2.818642     21.078969      0.637722   4.0000  12.0107
    120    4 C     6     28.184736      7.268110      3.217100   4.0000  12.0107
    121    4 C     6     18.941183     20.633715      4.333057   4.0000  12.0107
    122    4 C     6     12.051285      6.821718     -0.472209   4.0000  12.0107
    123    4 C     6      3.441079     20.637426     -0.477373   4.0000  12.0107
    124    4 C     6     27.561736      6.826586      4.331829   4.0000  12.0107
    125    4 C     6     19.776017     21.523329      1.162376   4.0000  12.0107
    126    4 C     6     11.214581      7.709750      2.698612   4.0000  12.0107
    127    4 C     6      4.274886     21.527535      2.692906   4.0000  12.0107
    128    4 C     6     26.728222      7.717178      1.161195   4.0000  12.0107
    129    4 C     6     20.160786     22.723724      4.429547   4.0000  12.0107
    130    4 C     6     10.827997      8.909076     -0.567240   4.0000  12.0107
    131    4 C     6      4.660149     22.727119     -0.572687   4.0000  12.0107
    132    4 C     6     26.344049      8.917180      4.427084   4.0000  12.0107
    133    4 C     6     18.794838     19.230262      0.819000   4.0000  12.0107
    134    4 C     6     12.201431      5.419748      3.041099   4.0000  12.0107
    135    4 C     6      3.295775     19.234103      3.037314   4.0000  12.0107
    136    4 C     6     27.706247      5.423048      0.817439   4.0000  12.0107
    137    5 H     1     11.522937     14.179026      4.567844   1.0000   1.0079
    138    5 H     1     13.462480     15.355419      5.534549   1.0000   1.0079
    139    5 H     1     15.986640     13.739378      2.540581   1.0000   1.0079
    140    5 H     1     14.080326     12.357931      1.687172   1.0000   1.0079
    141    5 H     1     13.027685      8.940354      1.956265   1.0000   1.0079
    142    5 H     1     13.328829      6.565238      1.151340   1.0000   1.0079
    143    5 H     1     10.107602      9.566404     -1.039082   1.0000   1.0079
    144    5 H     1      6.490102     15.789237      1.225239   1.0000   1.0079
    145    5 H     1      8.604165     14.720491      2.070230   1.0000   1.0079
    146    5 H     1      8.341934     11.788878     -0.958329   1.0000   1.0079
    147    5 H     1     29.591690     12.375327      2.168022   1.0000   1.0079
    148    5 H     1     27.026935     14.183261     -0.714035   1.0000   1.0079
    149    5 H     1     28.960747     15.370006     -1.679322   1.0000   1.0079
    150    5 H     1      0.489770     13.768853      1.318465   1.0000   1.0079
    151    5 H     1     21.990934     15.785125      2.624956   1.0000   1.0079
    152    5 H     1     23.848216     11.789159      4.810462   1.0000   1.0079
    153    5 H     1     24.102881     14.717021      1.777898   1.0000   1.0079
    154    5 H     1     25.622606      9.574228      4.897812   1.0000   1.0079
    155    5 H     1     28.545769      8.944399      1.904991   1.0000   1.0079
    156    5 H     1     28.837492      6.567848      2.707367   1.0000   1.0079
    157    5 H     1     21.722101     12.837689      1.723571   1.0000   1.0079
    158    5 H     1      6.900671      0.901575      2.075029   1.0000   1.0079
    159    5 H     1     17.667398     20.376734      2.707203   1.0000   1.0079
    160    5 H     1     20.880657     23.381070      4.902413   1.0000   1.0079
    161    5 H     1     26.019135      7.263652      1.851451   1.0000   1.0079
    162    5 H     1     17.961205     22.753340      1.905887   1.0000   1.0079
    163    5 H     1     22.658556     25.599439      4.821902   1.0000   1.0079
    164    5 H     1     24.781078     26.654551      1.736306   1.0000   1.0079
    165    5 H     1     16.916827     26.194838      2.183036   1.0000   1.0079
    166    5 H     1     15.018186     27.586139      1.331853   1.0000   1.0079
    167    5 H     1      6.220671     12.844217      2.124405   1.0000   1.0079
    168    5 H     1      5.381475     23.384202     -1.043362   1.0000   1.0079
    169    5 H     1     20.484936     21.068933      1.852202   1.0000   1.0079
    170    5 H     1      2.458656     22.755895      1.949490   1.0000   1.0079
    171    5 H     1      2.165805     20.378860      1.147422   1.0000   1.0079
    172    5 H     1      7.158964     25.597712     -0.957892   1.0000   1.0079
    173    5 H     1      1.415499     26.191775      1.681105   1.0000   1.0079
    174    5 H     1     10.505594      7.253379      2.010095   1.0000   1.0079
    175    5 H     1     19.480919      0.373527     -0.703651   1.0000   1.0079
    176    5 H     1     17.548239      1.566899     -1.664390   1.0000   1.0079
    177    5 H     1     24.511148      1.973384      2.633287   1.0000   1.0079
    178    5 H     1     22.395964      0.905067      1.790501   1.0000   1.0079
    179    5 H     1      3.980167      0.370719      4.566410   1.0000   1.0079
    180    5 H     1      2.047818      1.562592      5.528957   1.0000   1.0079
    181    5 H     1      9.013123      1.971449      1.229377   1.0000   1.0079
    182    5 H     1     30.518463     27.586413      2.530731   1.0000   1.0079
    183    5 H     1      4.984000     21.073291      2.003248   1.0000   1.0079
    184    5 H     1      9.284394     26.649548      2.129286   1.0000   1.0079



 SCF PARAMETERS         Density guess:                                   RESTART
                        --------------------------------------------------------
                        max_scf:                                              50
                        max_scf_history:                                       0
                        max_diis:                                              4
                        --------------------------------------------------------
                        eps_scf:                                        1.00E-08
                        eps_scf_history:                                0.00E+00
                        eps_diis:                                       1.00E-01
                        eps_eigval:                                     1.00E-05
                        --------------------------------------------------------
                        level_shift [a.u.]:                             0.000000
                        --------------------------------------------------------
                        Outer loop SCF in use 
                        No variables optimised in outer loop
                        eps_scf                                         1.00E-08
                        max_scf                                              200
                        No outer loop optimization
                        step_size                                       5.00E-01

 PW_GRID| Information for grid number                                          1
 PW_GRID| Grid distributed over                                   256 processors
 PW_GRID| Real space group dimensions                                   256    1
 PW_GRID| the grid is blocked:                                                NO
 PW_GRID| Cutoff [a.u.]                                                    400.0
 PW_GRID| spherical cutoff:                                                   NO
 PW_GRID|   Bounds   1           -270     269                Points:         540
 PW_GRID|   Bounds   2           -240     239                Points:         480
 PW_GRID|   Bounds   3            -36      35                Points:          72
 PW_GRID| Volume element (a.u.^3)  0.1212E-02     Volume (a.u.^3)     22614.5670
 PW_GRID| Grid span                                                    FULLSPACE
 PW_GRID|   Distribution                         Average         Max         Min
 PW_GRID|   G-Vectors                            72900.0       72900       72900
 PW_GRID|   G-Rays                                 135.0         135         135
 PW_GRID|   Real Space Points                    72900.0      103680       69120

 PW_GRID| Information for grid number                                          2
 PW_GRID| Number of the reference grid                                         1
 PW_GRID| Grid distributed over                                   256 processors
 PW_GRID| Real space group dimensions                                   256    1
 PW_GRID| the grid is blocked:                                                NO
 PW_GRID| Cutoff [a.u.]                                                    133.3
 PW_GRID| spherical cutoff:                                                   NO
 PW_GRID|   Bounds   1           -160     159                Points:         320
 PW_GRID|   Bounds   2           -144     143                Points:         288
 PW_GRID|   Bounds   3            -20      19                Points:          40
 PW_GRID| Volume element (a.u.^3)  0.6135E-02     Volume (a.u.^3)     22614.5670
 PW_GRID| Grid span                                                    FULLSPACE
 PW_GRID|   Distribution                         Average         Max         Min
 PW_GRID|   G-Vectors                            14400.0       16000       12800
 PW_GRID|   G-Rays                                  45.0          50          40
 PW_GRID|   Real Space Points                    14400.0       23040       11520

 PW_GRID| Information for grid number                                          3
 PW_GRID| Number of the reference grid                                         1
 PW_GRID| Grid distributed over                                   256 processors
 PW_GRID| Real space group dimensions                                    16   16
 PW_GRID| the grid is blocked:                                                NO
 PW_GRID| Cutoff [a.u.]                                                     44.4
 PW_GRID| spherical cutoff:                                                   NO
 PW_GRID|   Bounds   1            -90      89                Points:         180
 PW_GRID|   Bounds   2            -80      79                Points:         160
 PW_GRID|   Bounds   3            -12      11                Points:          24
 PW_GRID| Volume element (a.u.^3)  0.3272E-01     Volume (a.u.^3)     22614.5670
 PW_GRID| Grid span                                                    FULLSPACE
 PW_GRID|   Distribution                         Average         Max         Min
 PW_GRID|   G-Vectors                             2700.0        3420        1980
 PW_GRID|   G-Rays                                  15.0          19          11
 PW_GRID|   Real Space Points                     2700.0        2880        2640

 PW_GRID| Information for grid number                                          4
 PW_GRID| Number of the reference grid                                         1
 PW_GRID| Grid distributed over                                   256 processors
 PW_GRID| Real space group dimensions                                    16   16
 PW_GRID| the grid is blocked:                                                NO
 PW_GRID| Cutoff [a.u.]                                                     14.8
 PW_GRID| spherical cutoff:                                                   NO
 PW_GRID|   Bounds   1            -54      53                Points:         108
 PW_GRID|   Bounds   2            -48      47                Points:          96
 PW_GRID|   Bounds   3             -7       7                Points:          15
 PW_GRID| Volume element (a.u.^3)  0.1454         Volume (a.u.^3)     22614.5670
 PW_GRID| Grid span                                                    FULLSPACE
 PW_GRID|   Distribution                         Average         Max         Min
 PW_GRID|   G-Vectors                              607.5         972         216
 PW_GRID|   G-Rays                                   5.6           9           2
 PW_GRID|   Real Space Points                      607.5         630         540

 PW_GRID| Information for grid number                                          5
 PW_GRID| Number of the reference grid                                         1
 PW_GRID| Grid distributed over                                   256 processors
 PW_GRID| Real space group dimensions                                    16   16
[...]
 flops    62 x    32 x   124           1574502400       0.0%    100.0%      0.0%
 flops    62 x    32 x   127           1612595200       0.0%    100.0%      0.0%
 flops    57 x    32 x    32           1634304000       0.0%    100.0%      0.0%
 flops    52 x    32 x    32           1789132800       0.0%    100.0%      0.0%
 flops    57 x    32 x   124           1809408000       0.0%    100.0%      0.0%
 flops    57 x    32 x   127           1853184000       0.0%    100.0%      0.0%
 flops    67 x    32 x    32           1921024000       0.0%    100.0%      0.0%
 flops    52 x    32 x   124           1980825600       0.0%    100.0%      0.0%
 flops    52 x    32 x   127           2028748800       0.0%    100.0%      0.0%
 flops    67 x    32 x   124           2126848000       0.0%    100.0%      0.0%
 flops    67 x    32 x   127           2178304000       0.0%    100.0%      0.0%
 flops    75 x    32 x    32           3010560000       0.0%    100.0%      0.0%
 flops    75 x    32 x   124           3333120000       0.0%    100.0%      0.0%
 flops     5 x     8 x     5           3342643200       0.0%    100.0%      0.0%
 flops    75 x    32 x   127           3413760000       0.0%    100.0%      0.0%
 flops    32 x    32 x   124           4784455680       0.0%    100.0%      0.0%
 flops    32 x    32 x   127           4900208640       0.0%    100.0%      0.0%
 flops     5 x    13 x     8           5458452480       0.0%    100.0%      0.0%
 flops    13 x     5 x     8           5458452480       0.0%    100.0%      0.0%
 flops     5 x     8 x    13          24624138240       0.0%    100.0%      0.0%
 flops    13 x     8 x     5          24624138240       0.0%    100.0%      0.0%
 flops     5 x     5 x    32          30256128000       0.0%    100.0%      0.0%
 flops    13 x    13 x     8          40506266112       0.0%    100.0%      0.0%
 flops     5 x   328 x     5         105799680000       0.0%    100.0%      0.0%
 flops     5 x    32 x     5         134472499200       0.0%    100.0%      0.0%
 flops    13 x     8 x    13         181397818368       0.0%    100.0%      0.0%
 flops     5 x    13 x    32         218338099200       0.0%    100.0%      0.0%
 flops    13 x     5 x    32         218338099200       0.0%    100.0%      0.0%
 flops     5 x   328 x    13         779390976000       0.0%    100.0%      0.0%
 flops    13 x   328 x     5         779390976000       0.0%    100.0%      0.0%
 flops     5 x    32 x    13         990614077440       0.0%    100.0%      0.0%
 flops    13 x    32 x     5         990614077440       0.0%    100.0%      0.0%
 flops    13 x    13 x    32        1620250644480       0.0%    100.0%      0.0%
 flops    13 x   328 x    13        5741513523200       0.0%    100.0%      0.0%
 flops    13 x    32 x    13        7297523703808       0.0%    100.0%      0.0%
 flops   328 x   328 x     5       28918579200000       0.0%    100.0%      0.0%
 flops   328 x   328 x    13      213033533440000       0.0%    100.0%      0.0%
 flops inhomo. stacks                           0       0.0%      0.0%      0.0%
 flops total                       261.194918E+12       0.0%    100.0%      0.0%
 flops max/rank                      1.121766E+12       0.0%    100.0%      0.0%
 matmuls inhomo. stacks                         0       0.0%      0.0%      0.0%
 matmuls total                         1857059458       0.0%    100.0%      0.0%
 number of processed stacks             103268570       0.0%    100.0%      0.0%
 average stack size                                     0.0      18.0       0.0
 marketing flops                   263.310771E+12
 -------------------------------------------------------------------------------
 # multiplications                           5338
 max memory usage/rank               2.733818E+09
 # max total images/rank                        1
 # max 3D layers                                1
 # MPI messages exchanged                40995840
 MPI messages size (bytes):
  total size                         2.981975E+12
  min size                           0.000000E+00
  max size                           4.332224E+06
  average size                      72.738469E+03
 MPI breakdown and total messages size (bytes):
             size <=      128             8411580                        0
       128 < size <=     8192             1738020              13891299840
      8192 < size <=    32768            16634400             534430003200
     32768 < size <=   131072            14050560            1770082521600
    131072 < size <=  4194304               80640             318668636160
   4194304 < size <= 16777216               80640             345224355840
  16777216 < size                               0                        0
 -------------------------------------------------------------------------------
 -                                                                             -
 -                      DBCSR MESSAGE PASSING PERFORMANCE                      -
 -                                                                             -
 -------------------------------------------------------------------------------
 ROUTINE             CALLS      AVE VOLUME [Bytes]
 MP_Bcast              115                     12.
 MP_Allreduce        19702                      8.
 MP_Alltoall        101524                 174881.
 MP_ISend           341628                  36051.
 MP_IRecv           341628                  35747.
 -------------------------------------------------------------------------------

 -------------------------------------------------------------------------------
 -                                                                             -
 -                                DBM STATISTICS                               -
 -                                                                             -
 -------------------------------------------------------------------------------
    M  x    N  x    K                                          COUNT     PERCENT
 -------------------------------------------------------------------------------

 -------------------------------------------------------------------------------
 -                                                                             -
 -                                GRID STATISTICS                              -
 -                                                                             -
 -------------------------------------------------------------------------------
 LP    KERNEL             BACKEND                              COUNT     PERCENT
 4     collocate ortho    CPU                             1481677028      24.77%
 4     integrate ortho    CPU                             1476182552      24.68%
 3     collocate ortho    CPU                             1251129826      20.91%
 3     integrate ortho    CPU                             1246490284      20.84%
 2     collocate ortho    CPU                              263714584       4.41%
 2     integrate ortho    CPU                              262736656       4.39%
 0     collocate general  CPU                                  94208       0.00%
 0     integrate general  CPU                                  47104       0.00%
 -------------------------------------------------------------------------------

 MEMORY| Estimated peak process memory [MiB]                                1992

 -------------------------------------------------------------------------------
 ----                             MULTIGRID INFO                            ----
 -------------------------------------------------------------------------------
 count for grid        1:       13229776          cutoff [a.u.]          400.00
 count for grid        2:        9934994          cutoff [a.u.]          133.33
 count for grid        3:        7770628          cutoff [a.u.]           44.44
 count for grid        4:        6930860          cutoff [a.u.]           14.81
 count for grid        5:        6692206          cutoff [a.u.]            4.94
 total gridlevel count  :       44558464

 -------------------------------------------------------------------------------
 -                                                                             -
 -                         MESSAGE PASSING PERFORMANCE                         -
 -                                                                             -
 -------------------------------------------------------------------------------

 ROUTINE             CALLS      AVE VOLUME [Bytes]
 MP_Group                5
 MP_Bcast             1753                 946869.
 MP_Allreduce       138333                   7696.
 MP_Sync              7270
 MP_Alltoall         19394                2490243.
 MP_SendRecv        618885                   9701.
 MP_ISendRecv       616590                   9701.
 MP_Wait            824956
 MP_comm_split         805
 MP_ISend           294014                  75476.
 MP_IRecv           397294                  55857.
 -------------------------------------------------------------------------------


 -------------------------------------------------------------------------------
 -                                                                             -
 -                           R E F E R E N C E S                               -
 -                                                                             -
 -------------------------------------------------------------------------------
 
 CP2K version 2024.1 (Development Version), the CP2K developers group (2024).
 CP2K is freely available from https://www.cp2k.org/ .

 Kuehne,Thomas D.; Iannuzzi,Marcella; Del Ben,Mauro;
 Rybkin,Vladimir V.; Seewald,Patrick; Stein,Frederick; Laino,Teodoro;
 Khaliullin,Rustam Z.; Schuett,Ole; Schiffmann,Florian; Golze,Dorothea;
 Wilhelm,Jan; Chulkov,Sergey; Bani-Hashemian,Mohammad Hossein;
 Weber,Valery; Borstnik,Urban; Taillefumier,Mathieu;
 Jakobovits,Alice Shoshana; Lazzaro,Alfio; Pabst,Hans; Mueller,Tiziano;
 Schade,Robert; Guidon,Manuel; Andermatt,Samuel; Holmberg,Nico;
 Schenter,Gregory K.; Hehn,Anna; Bussy,Augustin; Belleflamme,Fabian;
 Tabacchi,Gloria; Gloess,Andreas; Lass,Michael; Bethune,Iain;
 Mundy,Christopher J.; Plessl,Christian; Watkins,Matt;
 VandeVondele,Joost; Krack,Matthias; Hutter,Juerg. 
 The Journal of Chemical Physics, 152 (19), (2020). 
 CP2K: An electronic structure and molecular dynamics software package -
 Quickstep: Efficient and accurate electronic structure calculations.
 https://doi.org/10.1063/5.0007045

 Schuett, Ole; Messmer, Peter; Hutter, Juerg; VandeVondele, Joost. 
 Electronic Structure Calculations on Graphics Processing Units, John
 Wiley & Sons, Ltd, 173-190 (2016). 
 GPU-Accelerated Sparse Matrix-Matrix Multiplication for
 Linear Scaling Density Functional Theory.
 https://doi.org/10.1002/9781118670712.ch8

 Heinecke, A; Henry, G; Hutchinson, M; Pabst, H. 
 Proceedings of Intl. Supercomputing Conference, 981-991 (2016). 
 LIBXSMM: Accelerating Small Matrix Multiplications
 by Runtime Code Generation.
 https://doi.org/10.1109/SC.2016.83

 Borstnik, U; VandeVondele, J; Weber, V; Hutter, J. 
 PARALLEL COMPUTING, 40 (5-6), 47-58 (2014). 
 Sparse matrix multiplication: The distributed block-compressed sparse
 row library.
 https://doi.org/10.1016/j.parco.2014.03.012

 Hutter, J; Iannuzzi, M; Schiffmann, F; VandeVondele, J. 
 WIREs Comput Mol Sci., 4 (1), 15-25 (2014). 
 CP2K: atomistic simulations of condensed matter systems.
 https://doi.org/10.1002/wcms.1159

 VandeVondele, J; Hutter, J. 
 JOURNAL OF CHEMICAL PHYSICS, 127 (11), 114105 (2007). 
 Gaussian basis sets for accurate calculations on molecular systems in
 gas and condensed phases.
 https://doi.org/10.1063/1.2770708

 Krack, M. 
 THEORETICAL CHEMISTRY ACCOUNTS, 114 (1-3), 145-152 (2005). 
 Pseudopotentials for H to Kr optimized for gradient-corrected
 exchange-correlation functionals.
 https://doi.org/10.1007/s00214-005-0655-y

 VandeVondele, J; Krack, M; Mohamed, F; Parrinello, M; Chassaing, T;
 Hutter, J. COMPUTER PHYSICS COMMUNICATIONS, 167 (2), 103-128 (2005). 
 QUICKSTEP: Fast and accurate density functional calculations using a
 mixed Gaussian and plane waves approach.
 https://doi.org/10.1016/j.cpc.2004.12.014

 Frigo, M; Johnson, SG. 
 PROCEEDINGS OF THE IEEE, 93 (2), 216-231 (2005). 
 The design and implementation of FFTW3.
 https://doi.org/10.1109/JPROC.2004.840301

 Iannuzzi, M; Chassaing, T; Wallman, T; Hutter, J. 
 CHIMIA, 59 (7-8), 499-503 (2005). 
 Ground and excited state density functional calculations with the
 Gaussian and augmented-plane-wave method.
 https://doi.org/10.2533/000942905777676164

 VandeVondele, J; Hutter, J. 
 JOURNAL OF CHEMICAL PHYSICS, 118 (10), 4365-4369 (2003). 
 An efficient orbital transformation method for electronic structure
 calculations.
 https://doi.org/10.1063/1.1543154

 Martin,Richard L.. 
 The Journal of Chemical Physics, 118 (11), 4775-4777 (2003). 
 Natural transition orbitals.
 https://doi.org/10.1063/1.1558471

 Hartwigsen, C; Goedecker, S; Hutter, J. 
 PHYSICAL REVIEW B, 58 (7), 3641-3662 (1998). 
 Relativistic separable dual-space Gaussian pseudopotentials from H to Rn.
 https://doi.org/10.1103/PhysRevB.58.3641

 Lippert, G; Hutter, J; Parrinello, M. 
 MOLECULAR PHYSICS, 92 (3), 477-487 (1997). 
 A hybrid Gaussian and plane wave density functional scheme.
 https://doi.org/10.1080/002689797170220

 Perdew, JP; Burke, K; Ernzerhof, M. 
 PHYSICAL REVIEW LETTERS, 77 (18), 3865-3868 (1996). 
 Generalized gradient approximation made simple.
 https://doi.org/10.1103/PhysRevLett.77.3865

 Goedecker, S; Teter, M; Hutter, J. 
 PHYSICAL REVIEW B, 54 (3), 1703-1710 (1996). 
 Separable dual-space Gaussian pseudopotentials.
 https://doi.org/10.1103/PhysRevB.54.1703


 -------------------------------------------------------------------------------
 -                                                                             -
 -                                T I M I N G                                  -
 -                                                                             -
 -------------------------------------------------------------------------------
 SUBROUTINE                       CALLS  ASD         SELF TIME        TOTAL TIME
                                MAXIMUM       AVERAGE  MAXIMUM  AVERAGE  MAXIMUM
 CP2K                                 1  1.0     0.03     0.08 22677.80 22677.84
 qs_energies                          1  2.0     0.02     0.05 22676.37 22676.41
 qs_energies_properties               1  3.0     0.00     0.00 22030.64 22030.68
 tddfpt                               1  4.0     0.00     0.02 22030.64 22030.68
 tddfpt_soc_energies                  1  5.0     0.00     0.01 22018.23 22018.27
 tddfpt_energies                      2  6.0     0.00     0.06 20951.23 20951.27
 tddfpt_davidson_solver               4  7.0     0.01     0.04 15786.75 15786.79
 tddfpt_compute_Aop_evects            4  8.0     0.00     0.01 10084.56 10084.63
 fhxc_kernel                          4  9.0     0.02     0.05  8792.84  8792.91
 tddfpt_orthonormalize_psi1_psi       6  7.7     0.23     0.88  8110.21  8110.28
 cp_fm_trace_a1b1t1_aa           120600  8.7   231.83   304.21  6432.80  6435.98
 mp_sum_dv                       121455  9.7  6240.72  6280.07  6240.72  6280.07
 cp_dbcsr_sm_fm_multiply           3619  9.1     0.08     0.14  5265.04  5273.74
 dbcsr_multiply_generic            5338 11.0     0.42     0.63  4032.91  4147.07
 pw_transfer                      16957 12.6     0.55     0.68  3571.89  3576.63
 fft_wrap_pw1pw2                  16145 13.6     0.05     0.08  3571.13  3575.73
 fft3d_ps                         16145 15.6    33.60    71.21  3559.28  3564.49
 mp_alltoall_z22v                 16145 17.6  2708.78  2734.80  2708.78  2734.80
 cp_dbcsr_sm_fm_multiply_core      3619 10.1     0.01     0.03  2425.20  2513.97
 multiply_cannon                   5338 12.0    14.12    15.12  2369.70  2498.38
 dbcsr_complete_redistribute      10079 11.2     1.61     2.28  2357.02  2401.61
 fft_wrap_pw1pw2_400               9685 14.7     1.55     1.68  2275.67  2288.99
 qs_rho_update_rho_low              809 10.0     0.01     0.02  2232.11  2244.78
 calculate_rho_elec                 809 11.0     0.17     0.26  2232.10  2244.78
 multiply_cannon_loop              5338 13.0     4.26     6.95  2094.32  2224.04
 tddfpt_print_nto_analysis            2  7.0     0.07     0.16  2152.54  2152.56
 copy_dbcsr_to_fm                  4042  9.9     0.05     0.11  2008.83  2062.80
 integrate_v_rspace                 806 10.0     0.03     0.06  1918.16  1920.84
 mp_alltoall_d11v                 44017 12.4  1664.48  1809.62  1664.48  1809.62
 cp_dbcsr_plus_fm_fm_t_native       801 10.0     0.01     0.02  1782.30  1800.52
 tddfpt_apply_xc_analytic           800 10.0     0.50     0.58  1633.34  1637.48
 multiply_cannon_multrec          85408 14.0  1525.56  1626.43  1525.69  1626.56
 density_rs2pw                      809 12.0     0.03     0.06  1595.46  1615.33
 x_to_yz                           6454 16.2     9.50    35.45  1480.25  1487.63
 xc_pw_derive                      6045 11.8     0.04     0.05  1435.61  1440.25
 copy_fm_to_dbcsr                  6037 10.5     0.02     0.03  1382.89  1406.79
 mp_alltoall_i22                  14134 12.1  1256.24  1398.06  1256.24  1398.06
 parallel_gemm_fm                  5655  8.6     0.01     0.02  1304.15  1371.37
 parallel_gemm_fm_cosma            5655  9.6  1304.14  1371.36  1304.14  1371.36
 tddfpt_apply_energy_diff             4  9.0     0.01     0.02  1291.72  1291.78
 dbcsr_desymmetrize_deep           4045 10.9     0.13     0.23  1125.54  1255.81
 potential_pw2rs                    806 11.0     0.04     0.07  1241.67  1242.85
 mp_waitall_1                   1409502 14.6   935.99  1164.48   935.99  1164.48
 yz_to_x                           4846 17.3     1.32     1.99  1125.63  1131.33
 tddfpt_soc                           1  6.0     0.00     0.00  1065.19  1065.19
 tddfpt_soc_rcs                       1  7.0     0.24     1.92  1065.19  1065.19
 mp_sum_l                         19801 11.8   893.82   929.19   893.82   929.19
 build_core_ppnl                      2  7.5   682.42   878.07   682.42   878.07
 transfer_rs2pw                    4047 12.9     0.02     0.05   655.32   796.12
 xc_calc_2nd_deriv_analytical       800 11.0    13.58    18.30   788.80   789.55
 xc_pw_divergence                   806 12.0     0.01     0.02   778.16   779.54
 mp_waitany                       80822 14.5   578.27   713.89   578.27   713.89
 make_m2s                         10676 12.0     0.12     0.25   617.63   644.46
 make_images                      10676 13.0    30.56    32.87   613.53   638.50
 multiply_cannon_metrocomm1       85408 14.0     0.15     0.22   291.26   544.47
 soc_dipol                            1  8.0     0.00     0.00   539.41   539.43
 get_rcs_amew_op                      1  9.0     0.11     0.19   537.79   537.84
 make_images_sizes                10676 14.0     0.01     0.04   482.46   525.57
 mp_alltoall_i44                  10676 15.0   482.44   525.56   482.44   525.56
 mp_alltoall_i11v                 34312 12.2   407.40   514.44   407.40   514.44
 transfer_rs2pw_400                 811 13.9    16.57    23.72   344.42   490.76
 -------------------------------------------------------------------------------

 The number of warnings for this run is : 0
 
 -------------------------------------------------------------------------------
  **** **** ******  **  PROGRAM ENDED AT                 2024-03-08 19:28:23.023
 ***** ** ***  *** **   PROGRAM RAN ON                               nesh-srp149
 **    ****   ******    PROGRAM RAN BY                                  suphc355
 ***** **    ** ** **   PROGRAM PROCESS ID                               2123407
  **** **  *******  **  PROGRAM STOPPED IN /gxfs_work/cau/suphc355/MOFs/CAU7_TAB
                                           A/SOC/DZ
