       2
 i =        7, E =       -22.8701253241
  I         2.6728189984        4.0000000000        4.0000000001
  I         5.3271810016        4.0000000000        3.9999999999
