       2
 i =        6, E =      -460.6263713119
 Cl         3.3554191721        4.0000000216        4.0000000047
  H         4.6445807619        3.9999999784        3.9999999953
