 DBCSR| CPU Multiplication driver                                           XSMM (U)
 DBCSR| Multrec recursion limit                                              512 (U)
 DBCSR| Multiplication stack size                                           1000 (D)
 DBCSR| Maximum elements for images                                    UNLIMITED (U)
 DBCSR| Multiplicative factor virtual images                                   1 (U)
 DBCSR| Use multiplication densification                                       T (D)
 DBCSR| Multiplication size stacks                                             3 (U)
 DBCSR| Use memory pool for CPU allocation                                     F (U)
 DBCSR| Number of 3D layers                                               SINGLE (U)
 DBCSR| Use MPI memory allocation                                              F (U)
 DBCSR| Use RMA algorithm                                                      F (U)
 DBCSR| Use Communication thread                                               T (U)
 DBCSR| Communication thread load                                             83 (D)
 DBCSR| MPI: My process id                                                     0
 DBCSR| MPI: Number of processes                                              64
 DBCSR| OMP: Current number of threads                                         2
 DBCSR| OMP: Max number of threads                                             2
 DBCSR| Split modifier for TAS multiplication algorithm                  1.0E+00 (U)


  **** **** ******  **  PROGRAM STARTED AT               2023-12-05 17:26:43.223
 ***** ** ***  *** **   PROGRAM STARTED ON                           nesh-clk516
 **    ****   ******    PROGRAM STARTED BY                              suphc355
 ***** **    ** ** **   PROGRAM PROCESS ID                               2022666
  **** **  *******  **  PROGRAM STARTED IN /gxfs_work/cau/suphc355/homologes/HX/
                                           opt/Cl

 CP2K| version string:                 CP2K version 2023.2 (Development Version)
 CP2K| source code revision number:                                  git:845a3ae
 CP2K| cp2kflags: omp libint fftw3 libxc parallel mpi_f08 scalapack cosma xsmm s
 CP2K|            pglib mkl
 CP2K| is freely available from                            https://www.cp2k.org/
 CP2K| Program compiled at                           Fr 1. Dez 12:58:35 CET 2023
 CP2K| Program compiled on                                           nesh-login3
 CP2K| Program compiled for                                                local
 CP2K| Data directory path            /gxfs_home/cau/suphc355/software/cp2k/data
 CP2K| Input file name                                                   opt.inp
 
 GLOBAL| Force Environment number                                              1
 GLOBAL| Basis set file name                                   ../../../basis_ae
 GLOBAL| Potential file name                                           POTENTIAL
 GLOBAL| MM Potential file name                                     MM_POTENTIAL
 GLOBAL| Coordinate file name                                          start.xyz
 GLOBAL| Method name                                                        CP2K
 GLOBAL| Project name                                                    HCl_opt
 GLOBAL| Run type                                                        GEO_OPT
 GLOBAL| FFT library                                                       FFTW3
 GLOBAL| Diagonalization library                                       ScaLAPACK
 GLOBAL| DGEMM library                                                      BLAS
 GLOBAL| Orthonormality check for eigenvectors                          DISABLED
 GLOBAL| Matrix multiplication library                                     COSMA
 GLOBAL| All-to-all communication in single precision                          F
 GLOBAL| FFTs using library dependent lengths                                  F
 GLOBAL| Grid backend                                                       AUTO
 GLOBAL| Global print level                                               MEDIUM
 GLOBAL| MPI I/O enabled                                                       T
 GLOBAL| Total number of message passing processes                            64
 GLOBAL| Number of threads for this process                                    2
 GLOBAL| This output is from process                                           0
 GLOBAL| Stack size for threads created by OpenMP (OMP_STACKSIZE)        default
 GLOBAL| CPU model name                Intel(R) Xeon(R) Gold 6226R CPU @ 2.90GHz
 GLOBAL| CPUID                                                              1003

 MEMORY| system memory details [Kb]
 MEMORY|                        rank 0           min           max       average
 MEMORY| MemTotal            196683224     196683224     196683224     196683224
 MEMORY| MemFree             176060952     176060952     177912840     176987410
 MEMORY| Buffers                885464        180076        885464        532770
 MEMORY| Cached                1284252        869008       1284252       1076630
 MEMORY| Slab                   681188        478968        681188        580078
 MEMORY| SReclaimable           223208        141376        223208        182292
 MEMORY| MemLikelyFree       178453876     178453876     179103300     178779102


 *** Fundamental physical constants (SI units) ***

 *** Literature: B. J. Mohr and B. N. Taylor,
 ***             CODATA recommended values of the fundamental physical
 ***             constants: 2006, Web Version 5.1
 ***             http://physics.nist.gov/constants

 Speed of light in vacuum [m/s]                             2.99792458000000E+08
 Magnetic constant or permeability of vacuum [N/A**2]       1.25663706143592E-06
 Electric constant or permittivity of vacuum [F/m]          8.85418781762039E-12
 Planck constant (h) [J*s]                                  6.62606896000000E-34
 Planck constant (h-bar) [J*s]                              1.05457162825177E-34
 Elementary charge [C]                                      1.60217648700000E-19
 Electron mass [kg]                                         9.10938215000000E-31
 Electron g factor [ ]                                     -2.00231930436220E+00
 Proton mass [kg]                                           1.67262163700000E-27
 Fine-structure constant                                    7.29735253760000E-03
 Rydberg constant [1/m]                                     1.09737315685270E+07
 Avogadro constant [1/mol]                                  6.02214179000000E+23
 Boltzmann constant [J/K]                                   1.38065040000000E-23
 Atomic mass unit [kg]                                      1.66053878200000E-27
 Bohr radius [m]                                            5.29177208590000E-11

 *** Conversion factors ***

 [u] -> [a.u.]                                              1.82288848426455E+03
 [Angstrom] -> [Bohr] = [a.u.]                              1.88972613288564E+00
 [a.u.] = [Bohr] -> [Angstrom]                              5.29177208590000E-01
 [a.u.] -> [s]                                              2.41888432650478E-17
 [a.u.] -> [fs]                                             2.41888432650478E-02
 [a.u.] -> [J]                                              4.35974393937059E-18
 [a.u.] -> [N]                                              8.23872205491840E-08
 [a.u.] -> [K]                                              3.15774647902944E+05
 [a.u.] -> [kJ/mol]                                         2.62549961709828E+03
 [a.u.] -> [kcal/mol]                                       6.27509468713739E+02
 [a.u.] -> [Pa]                                             2.94210107994716E+13
 [a.u.] -> [bar]                                            2.94210107994716E+08
 [a.u.] -> [atm]                                            2.90362800883016E+08
 [a.u.] -> [eV]                                             2.72113838565563E+01
 [a.u.] -> [Hz]                                             6.57968392072181E+15
 [a.u.] -> [1/cm] (wave numbers)                            2.19474631370540E+05
 [a.u./Bohr**2] -> [1/cm]                                   5.14048714338585E+03
 

 CELL_TOP| Volume [angstrom^3]:                                       512.000000
 CELL_TOP| Vector a [angstrom     8.000     0.000     0.000   |a| =     8.000000
 CELL_TOP| Vector b [angstrom     0.000     8.000     0.000   |b| =     8.000000
 CELL_TOP| Vector c [angstrom     0.000     0.000     8.000   |c| =     8.000000
 CELL_TOP| Angle (b,c), alpha [degree]:                                90.000000
 CELL_TOP| Angle (a,c), beta  [degree]:                                90.000000
 CELL_TOP| Angle (a,b), gamma [degree]:                                90.000000
 CELL_TOP| Numerically orthorhombic:                                         YES
 CELL_TOP| Periodicity                                                      NONE
 
 GENERATE|  Preliminary Number of Bonds generated:                             0
 GENERATE|  Achieved consistency in connectivity generation.

 CELL| Volume [angstrom^3]:                                           512.000000
 CELL| Vector a [angstrom]:       8.000     0.000     0.000   |a| =     8.000000
 CELL| Vector b [angstrom]:       0.000     8.000     0.000   |b| =     8.000000
 CELL| Vector c [angstrom]:       0.000     0.000     8.000   |c| =     8.000000
 CELL| Angle (b,c), alpha [degree]:                                    90.000000
 CELL| Angle (a,c), beta  [degree]:                                    90.000000
 CELL| Angle (a,b), gamma [degree]:                                    90.000000
 CELL| Numerically orthorhombic:                                             YES
 CELL| Periodicity                                                          NONE

 CELL_REF| Volume [angstrom^3]:                                       512.000000
 CELL_REF| Vector a [angstrom     8.000     0.000     0.000   |a| =     8.000000
 CELL_REF| Vector b [angstrom     0.000     8.000     0.000   |b| =     8.000000
 CELL_REF| Vector c [angstrom     0.000     0.000     8.000   |c| =     8.000000
 CELL_REF| Angle (b,c), alpha [degree]:                                90.000000
 CELL_REF| Angle (a,c), beta  [degree]:                                90.000000
 CELL_REF| Angle (a,b), gamma [degree]:                                90.000000
 CELL_REF| Numerically orthorhombic:                                         YES
 CELL_REF| Periodicity                                                      NONE

 *******************************************************************************
 *******************************************************************************
 **                                                                           **
 **     #####                         ##              ##                      **
 **    ##   ##            ##          ##              ##                      **
 **   ##     ##                       ##            ######                    **
 **   ##     ##  ##   ##  ##   #####  ##  ##   ####   ##    #####    #####    **
 **   ##     ##  ##   ##  ##  ##      ## ##   ##      ##   ##   ##  ##   ##   **
 **   ##  ## ##  ##   ##  ##  ##      ####     ###    ##   ######   ######    **
 **    ##  ###   ##   ##  ##  ##      ## ##      ##   ##   ##       ##        **
 **     #######   #####   ##   #####  ##  ##  ####    ##    #####   ##        **
 **           ##                                                    ##        **
 **                                                                           **
 **                                                ... make the atoms dance   **
 **                                                                           **
 **            Copyright (C) by CP2K developers group (2000-2023)             **
 **                      J. Chem. Phys. 152, 194103 (2020)                    **
 **                                                                           **
 *******************************************************************************

 DFT| Spin restricted Kohn-Sham (RKS) calculation                            RKS
 DFT| Multiplicity                                                             1
 DFT| Number of spin states                                                    1
 DFT| Charge                                                                   0
 DFT| Self-interaction correction (SIC)                                       NO
 DFT| Cutoffs: density                                              1.000000E-10
 DFT|          gradient                                             1.000000E-10
 DFT|          tau                                                  1.000000E-10
 DFT|          cutoff_smoothing_range                               0.000000E+00
 DFT| XC density smoothing                                                  NONE
 DFT| XC derivatives                                                          PW

 FUNCTIONAL| PBE:
 FUNCTIONAL| J.P.Perdew, K.Burke, M.Ernzerhof, Phys. Rev. Letter, vol. 77, n 18,
 FUNCTIONAL|  pp. 3865-3868, (1996) {spin unpolarized}                          


 QS| Method:                                                                GAPW
 QS| Density plane wave grid type                        NON-SPHERICAL FULLSPACE
 QS| Number of grid levels:                                                    5
 QS| Density cutoff [a.u.]:                                                600.0
 QS| Multi grid cutoff [a.u.]: 1) grid level                               600.0
 QS|                           2) grid level                               200.0
 QS|                           3) grid level                                66.7
 QS|                           4) grid level                                22.2
 QS|                           5) grid level                                 7.4
 QS| Grid level progression factor:                                          3.0
 QS| Relative density cutoff [a.u.]:                                        40.0
 QS| Interaction thresholds: eps_pgf_orb:                                1.0E-30
 QS|                         eps_filter_matrix:                          0.0E+00
 QS|                         eps_core_charge:                            1.0E-17
 QS|                         eps_rho_gspace:                             1.0E-15
 QS|                         eps_rho_rspace:                             1.0E-15
 QS|                         eps_gvg_rspace:                             3.2E-08
 QS|                         eps_ppl:                                    1.0E-02
 QS|                         eps_ppnl:                                   3.2E-10
 QS| GAPW|      One center basis from orbital basis primitives
 QS| GAPW|                   eps_fit:                                    1.0E-04
 QS| GAPW|                   eps_iso:                                    1.0E-12
 QS| GAPW|                   eps_svd:                                    1.0E-08
 QS| GAPW|                   eps_cpc:                                    1.0E-15
 QS| GAPW|   atom-r-grid: quadrature:                                     GC_LOG
 QS| GAPW|      atom-s-grid:  max l :                                          6
 QS| GAPW|      max_l_rho0 :                                                   2


 ATOMIC KIND INFORMATION

  1. Atomic kind: Cl                                    Number of atoms:       1

     Orbital Basis Set                                                 def2-TZVP

       Number of orbital shell sets:                                          13
       Number of orbital shells:                                              13
       Number of primitive Cartesian functions:                               27
       Number of Cartesian basis functions:                                   42
       Number of spherical basis functions:                                   37
       Norm type:                                                              2

       Normalised Cartesian orbitals:

                        Set   Shell   Orbital            Exponent    Coefficient

                          1       1    1s            69507.990945       1.569943
                                                     10426.156880       2.925383
                                                      2373.233406       4.957240
                                                       671.564201       7.535620
                                                       218.419998       9.497528
                                                        77.572250       8.297991
                                                        28.888815       3.149778

                          2       1    1s              127.105272       3.046973
                                                        39.339583       5.415519
                                                         7.674068      -4.039358

                          3       1    1s                3.874563       1.324560
                                                         1.838583       0.393364

                          4       1    1s                0.502291       0.425232

                          5       1    1s                0.179627       0.196648

                          6       1    1px             666.504233      16.172272
                                                       157.642417      21.309928
                                                        50.262521      23.583493
                                                        18.536078      19.651718
                                                         7.294053      10.538446
                          6       1    1py             666.504233      16.172272
                                                       157.642417      21.309928
                                                        50.262521      23.583493
                                                        18.536078      19.651718
                                                         7.294053      10.538446
                          6       1    1pz             666.504233      16.172272
                                                       157.642417      21.309928
                                                        50.262521      23.583493
                                                        18.536078      19.651718
                                                         7.294053      10.538446

                          7       1    1px               2.943325       5.495255
                          7       1    1py               2.943325       5.495255
                          7       1    1pz               2.943325       5.495255

                          8       1    1px               1.040497       1.497929
                          8       1    1py               1.040497       1.497929
                          8       1    1pz               1.040497       1.497929

                          9       1    1px               0.384564       0.431669
                          9       1    1py               0.384564       0.431669
                          9       1    1pz               0.384564       0.431669

                         10       1    1px               0.130696       0.112013
                         10       1    1py               0.130696       0.112013
                         10       1    1pz               0.130696       0.112013

                         11       1    1dx2              4.610000       4.360393
                                                         1.011000       1.532264
                         11       1    1dxy              4.610000       7.552422
                                                         1.011000       2.653959
                         11       1    1dxz              4.610000       7.552422
                                                         1.011000       2.653959
                         11       1    1dy2              4.610000       4.360393
                                                         1.011000       1.532264
                         11       1    1dyz              4.610000       7.552422
                                                         1.011000       2.653959
                         11       1    1dz2              4.610000       4.360393
                                                         1.011000       1.532264

                         12       1    1dx2              0.339000       0.247890
                         12       1    1dxy              0.339000       0.429358
                         12       1    1dxz              0.339000       0.429358
                         12       1    1dy2              0.339000       0.247890
                         12       1    1dyz              0.339000       0.429358
                         12       1    1dz2              0.339000       0.247890

                         13       1    1fx3              0.706000       0.672613
                         13       1    1fx2y             0.706000       1.504008
                         13       1    1fx2z             0.706000       1.504008
                         13       1    1fxy2             0.706000       1.504008
                         13       1    1fxyz             0.706000       2.605018
                         13       1    1fxz2             0.706000       1.504008
                         13       1    1fy3              0.706000       0.672613
                         13       1    1fy2z             0.706000       1.504008
                         13       1    1fyz2             0.706000       1.504008
                         13       1    1fz3              0.706000       0.672613

       Atomic covalent radius [Angstrom]:                                  0.990

       Atomic van der Waals radius [Angstrom]:                             1.750

     The atoms of this atomic kind are PAW atoms (GAPW):
       Hard Gaussian function radius:                                      1.512
       Rho0 radius:                                                        1.512
       Maximum GTO radius used for PAW projector construction:            24.566

     GAPW Soft Basis Set                                          def2-TZVP_soft

       Number of orbital shell sets:                                          13
       Number of orbital shells:                                              13
       Number of primitive Cartesian functions:                               11
       Number of Cartesian basis functions:                                   42
       Number of spherical basis functions:                                   37
       Norm type:                                                              2

       Normalised Cartesian orbitals:

                        Set   Shell   Orbital            Exponent    Coefficient

                          1       1    1s         

                          2       1    1s         

                          3       1    1s                3.874563       1.324560
                                                         1.838583       0.393364

                          4       1    1s                0.502291       0.425232

                          5       1    1s                0.179627       0.196648

                          6       1    1px        
                          6       1    1py        
                          6       1    1pz        

                          7       1    1px               2.943325       5.495255
                          7       1    1py               2.943325       5.495255
                          7       1    1pz               2.943325       5.495255

                          8       1    1px               1.040497       1.497929
                          8       1    1py               1.040497       1.497929
                          8       1    1pz               1.040497       1.497929

                          9       1    1px               0.384564       0.431669
                          9       1    1py               0.384564       0.431669
                          9       1    1pz               0.384564       0.431669

                         10       1    1px               0.130696       0.112013
                         10       1    1py               0.130696       0.112013
                         10       1    1pz               0.130696       0.112013

                         11       1    1dx2              1.011000       1.532264
                         11       1    1dxy              1.011000       2.653959
                         11       1    1dxz              1.011000       2.653959
                         11       1    1dy2              1.011000       1.532264
                         11       1    1dyz              1.011000       2.653959
                         11       1    1dz2              1.011000       1.532264

                         12       1    1dx2              0.339000       0.247890
                         12       1    1dxy              0.339000       0.429358
                         12       1    1dxz              0.339000       0.429358
                         12       1    1dy2              0.339000       0.247890
                         12       1    1dyz              0.339000       0.429358
                         12       1    1dz2              0.339000       0.247890

                         13       1    1fx3              0.706000       0.672613
                         13       1    1fx2y             0.706000       1.504008
                         13       1    1fx2z             0.706000       1.504008
                         13       1    1fxy2             0.706000       1.504008
                         13       1    1fxyz             0.706000       2.605018
                         13       1    1fxz2             0.706000       1.504008
                         13       1    1fy3              0.706000       0.672613
                         13       1    1fy2z             0.706000       1.504008
                         13       1    1fyz2             0.706000       1.504008
                         13       1    1fz3              0.706000       0.672613

     AE Potential information for                                            ALL

       Description:                                       All-electron potential
                                          Krack, Parrinello, PCCP 2, 2105 (2000)

       Gaussian exponent of the core charge distribution:               2.974420
       Electronic configuration (s p d ...):                           6  11   0

  2. Atomic kind: H                                     Number of atoms:       1

     Orbital Basis Set                                                 def2-TZVP

       Number of orbital shell sets:                                           4
       Number of orbital shells:                                               4
       Number of primitive Cartesian functions:                                6
       Number of Cartesian basis functions:                                    6
       Number of spherical basis functions:                                    6
       Norm type:                                                              2

       Normalised Cartesian orbitals:

                        Set   Shell   Orbital            Exponent    Coefficient

                          1       1    1s               34.061341       0.255630
                                                         5.123575       0.461360
                                                         1.164663       0.681121

                          2       1    1s                0.327230       0.308355

                          3       1    1s                0.103072       0.129648

                          4       1    1px               0.800000       1.078456
                          4       1    1py               0.800000       1.078456
                          4       1    1pz               0.800000       1.078456

       Atomic covalent radius [Angstrom]:                                  0.320

       Atomic van der Waals radius [Angstrom]:                             1.090

     The atoms of this atomic kind are PAW atoms (GAPW):
       Hard Gaussian function radius:                                      1.200
       Rho0 radius:                                                        1.200
       Maximum GTO radius used for PAW projector construction:            24.566

     GAPW Soft Basis Set                                          def2-TZVP_soft

       Number of orbital shell sets:                                           4
       Number of orbital shells:                                               4
       Number of primitive Cartesian functions:                                5
       Number of Cartesian basis functions:                                    6
       Number of spherical basis functions:                                    6
       Norm type:                                                              2

       Normalised Cartesian orbitals:

                        Set   Shell   Orbital            Exponent    Coefficient

                          1       1    1s                5.123575       0.461360
                                                         1.164663       0.681121

                          2       1    1s                0.327230       0.308355

                          3       1    1s                0.103072       0.129648

                          4       1    1px               0.800000       1.078456
                          4       1    1py               0.800000       1.078456
                          4       1    1pz               0.800000       1.078456

     AE Potential information for                                            ALL

       Description:                                       All-electron potential
                                          Krack, Parrinello, PCCP 2, 2105 (2000)

       Gaussian exponent of the core charge distribution:              12.500000
       Electronic configuration (s p d ...):                           1   0   0


 MOLECULE KIND INFORMATION


 All atoms are their own molecule, skipping detailed information


 TOTAL NUMBERS AND MAXIMUM NUMBERS

  Total number of            - Atomic kinds:                                   2
                             - Atoms:                                          2
                             - Shell sets:                                    17
                             - Shells:                                        17
                             - Primitive Cartesian functions:                 33
                             - Cartesian basis functions:                     48
                             - Spherical basis functions:                     43

  Maximum angular momentum of the orbital basis functions:                     3


 MODULE QUICKSTEP: ATOMIC COORDINATES IN ANGSTROM

   Atom Kind Element         X             Y             Z       Z(eff)     Mass
      1    1 Cl   17      3.500000      4.000000      4.000000  17.0000  35.4530
      2    2 H     1      4.500000      4.000000      4.000000   1.0000   1.0079



 SCF PARAMETERS         Density guess:                                    ATOMIC
                        --------------------------------------------------------
                        max_scf:                                              20
                        max_scf_history:                                       0
                        max_diis:                                              4
                        --------------------------------------------------------
                        eps_scf:                                        1.00E-08
                        eps_scf_history:                                0.00E+00
                        eps_diis:                                       1.00E-01
                        eps_eigval:                                     1.00E-05
                        --------------------------------------------------------
                        level_shift [a.u.]:                             0.000000
                        --------------------------------------------------------
                        Outer loop SCF in use 
                        No variables optimised in outer loop
                        eps_scf                                         1.00E-08
                        max_scf                                               50
                        No outer loop optimization
                        step_size                                       5.00E-01

 PW_GRID| Information for grid number                                          1
 PW_GRID| Grid distributed over                                    64 processors
 PW_GRID| Real space group dimensions                                    64    1
 PW_GRID| the grid is blocked:                                                NO
 PW_GRID| Cutoff [a.u.]                                                   1200.0
 PW_GRID| spherical cutoff:                                                   NO
 PW_GRID|   Bounds   1           -120     119                Points:         240
 PW_GRID|   Bounds   2           -120     119                Points:         240
 PW_GRID|   Bounds   3           -120     119                Points:         240
 PW_GRID| Volume element (a.u.^3)  0.2499E-03     Volume (a.u.^3)      3455.1473
 PW_GRID| Grid span                                                    FULLSPACE
 PW_GRID|   Distribution                         Average         Max         Min
 PW_GRID|   G-Vectors                           216000.0      216000      216000
 PW_GRID|   G-Rays                                 900.0         900         900
 PW_GRID|   Real Space Points                   216000.0      230400      172800

 PW_GRID| Information for grid number                                          2
 PW_GRID| Number of the reference grid                                         1
 PW_GRID| Grid distributed over                                    64 processors
 PW_GRID| Real space group dimensions                                    64    1
 PW_GRID| the grid is blocked:                                                NO
 PW_GRID| Cutoff [a.u.]                                                    600.0
 PW_GRID| spherical cutoff:                                                   NO
 PW_GRID|   Bounds   1            -90      89                Points:         180
 PW_GRID|   Bounds   2            -90      89                Points:         180
 PW_GRID|   Bounds   3            -90      89                Points:         180
 PW_GRID| Volume element (a.u.^3)  0.5924E-03     Volume (a.u.^3)      3455.1473
 PW_GRID| Grid span                                                    FULLSPACE
 PW_GRID|   Distribution                         Average         Max         Min
 PW_GRID|   G-Vectors                            91125.0       91440       90720
 PW_GRID|   G-Rays                                 506.2         508         504
 PW_GRID|   Real Space Points                    91125.0       97200       64800

 PW_GRID| Information for grid number                                          3
 PW_GRID| Number of the reference grid                                         2
 PW_GRID| Grid distributed over                                    64 processors
 PW_GRID| Real space group dimensions                                    64    1
 PW_GRID| the grid is blocked:                                                NO
 PW_GRID| Cutoff [a.u.]                                                    200.0
 PW_GRID| spherical cutoff:                                                   NO
 PW_GRID|   Bounds   1            -50      49                Points:         100
 PW_GRID|   Bounds   2            -50      49                Points:         100
 PW_GRID|   Bounds   3            -50      49                Points:         100
 PW_GRID| Volume element (a.u.^3)  0.3455E-02     Volume (a.u.^3)      3455.1473
 PW_GRID| Grid span                                                    FULLSPACE
 PW_GRID|   Distribution                         Average         Max         Min
 PW_GRID|   G-Vectors                            15625.0       15800       15500
 PW_GRID|   G-Rays                                 156.2         158         155
 PW_GRID|   Real Space Points                    15625.0       20000       10000

 PW_GRID| Information for grid number                                          4
 PW_GRID| Number of the reference grid                                         2
 PW_GRID| Grid distributed over                                    64 processors
 PW_GRID| Real space group dimensions                                     8    8
 PW_GRID| the grid is blocked:                                                NO
 PW_GRID| Cutoff [a.u.]                                                     66.7
 PW_GRID| spherical cutoff:                                                   NO
 PW_GRID|   Bounds   1            -30      29                Points:          60
 PW_GRID|   Bounds   2            -30      29                Points:          60
 PW_GRID|   Bounds   3            -30      29                Points:          60
 PW_GRID| Volume element (a.u.^3)  0.1600E-01     Volume (a.u.^3)      3455.1473
 PW_GRID| Grid span                                                    FULLSPACE
 PW_GRID|   Distribution                         Average         Max         Min
 PW_GRID|   G-Vectors                             3375.0        3540        3240
 PW_GRID|   G-Rays                                  56.2          59          54
 PW_GRID|   Real Space Points                     3375.0        3840        2940

 PW_GRID| Information for grid number                                          5
 PW_GRID| Number of the reference grid                                         2
 PW_GRID| Grid distributed over                                    64 processors
 PW_GRID| Real space group dimensions                                     8    8
 PW_GRID| the grid is blocked:                                                NO
 PW_GRID| Cutoff [a.u.]                                                     22.2
 PW_GRID| spherical cutoff:                                                   NO
 PW_GRID|   Bounds   1            -18      17                Points:          36
 PW_GRID|   Bounds   2            -18      17                Points:          36
 PW_GRID|   Bounds   3            -18      17                Points:          36
 PW_GRID| Volume element (a.u.^3)  0.7406E-01     Volume (a.u.^3)      3455.1473
 PW_GRID| Grid span                                                    FULLSPACE
 PW_GRID|   Distribution                         Average         Max         Min
 PW_GRID|   G-Vectors                              729.0         792         684
 PW_GRID|   G-Rays                                  20.2          22          19
 PW_GRID|   Real Space Points                      729.0         900         576

 PW_GRID| Information for grid number                                          6
 PW_GRID| Number of the reference grid                                         2
 PW_GRID| Grid distributed over                                    64 processors
 PW_GRID| Real space group dimensions                                     8    8
 PW_GRID| the grid is blocked:                                                NO
 PW_GRID| Cutoff [a.u.]                                                      7.4
 PW_GRID| spherical cutoff:                                                   NO
 PW_GRID|   Bounds   1            -10       9                Points:          20
 PW_GRID|   Bounds   2            -10       9                Points:          20
 PW_GRID|   Bounds   3            -10       9                Points:          20
 PW_GRID| Volume element (a.u.^3)  0.4319         Volume (a.u.^3)      3455.1473
 PW_GRID| Grid span                                                    FULLSPACE
 PW_GRID|   Distribution                         Average         Max         Min
 PW_GRID|   G-Vectors                              125.0         140         100
 PW_GRID|   G-Rays                                   6.2           7           5
 PW_GRID|   Real Space Points                      125.0         180          80

 POISSON| Solver                                          Martyna-Tuckerman (MT)
 POISSON| MT| Alpha                                                        7.000
 POISSON| MT| Relative cutoff                                                2.0
 POISSON| Periodicity                                                       NONE

 RS_GRID| Information for grid number                                          2
 RS_GRID|   Bounds   1            -90      89                Points:         180
 RS_GRID|   Bounds   2            -90      89                Points:         180
 RS_GRID|   Bounds   3            -90      89                Points:         180
 RS_GRID| Real space distribution over                                  8 groups
 RS_GRID| Real space distribution along direction                              2
 RS_GRID| Border size                                                         45
 RS_GRID| Real space distribution over                                  8 groups
 RS_GRID| Real space distribution along direction                              3
 RS_GRID| Border size                                                         45
 RS_GRID|   Distribution                         Average         Max         Min
 RS_GRID|   Planes                                 112.5         113         112
 RS_GRID|   Distribution                         Average         Max         Min
 RS_GRID|   Planes                                 112.5         113         112

 RS_GRID| Information for grid number                                          3
 RS_GRID|   Bounds   1            -50      49                Points:         100
 RS_GRID|   Bounds   2            -50      49                Points:         100
 RS_GRID|   Bounds   3            -50      49                Points:         100
 RS_GRID| Real space fully replicated
 RS_GRID| Group size                                                           1

 RS_GRID| Information for grid number                                          4
 RS_GRID|   Bounds   1            -30      29                Points:          60
 RS_GRID|   Bounds   2            -30      29                Points:          60
 RS_GRID|   Bounds   3            -30      29                Points:          60
 RS_GRID| Real space fully replicated
 RS_GRID| Group size                                                           1

 RS_GRID| Information for grid number                                          5
 RS_GRID|   Bounds   1            -18      17                Points:          36
 RS_GRID|   Bounds   2            -18      17                Points:          36
 RS_GRID|   Bounds   3            -18      17                Points:          36
 RS_GRID| Real space fully replicated
 RS_GRID| Group size                                                           1

 RS_GRID| Information for grid number                                          6
 RS_GRID|   Bounds   1            -10       9                Points:          20
 RS_GRID|   Bounds   2            -10       9                Points:          20
 RS_GRID|   Bounds   3            -10       9                Points:          20
 RS_GRID| Real space fully replicated
 RS_GRID| Group size                                                           1

 BFGS| Use rational function optimization for step estimation:                NO
 BFGS| Use model Hessian for initial guess:                                  YES
 BFGS| Restart Hessian:                                                       NO
 BFGS| Trust radius:                                                       0.472

 *******************************************************************************
 ***                     STARTING GEOMETRY OPTIMIZATION                      ***
 ***                                   BFGS                                  ***
 *******************************************************************************

 Number of electrons:                                                         18
 Number of occupied orbitals:                                                  9
 Number of molecular orbitals:                                                 9

 Number of orbital functions:                                                 43
 Number of independent orbital functions:                                     43

 Extrapolation method: initial_guess

 Atomic guess: The first density matrix is obtained in terms of atomic orbitals
               and electronic configurations assigned to each atomic kind

 Guess for atomic kind: Cl

 Electronic structure
    Total number of core electrons                                          0.00
    Total number of valence electrons                                      17.00
    Total number of electrons                                              17.00
    Multiplicity                                                   not specified
    S      2.00  2.00  2.00
    P      6.00  5.00
 

 *******************************************************************************
                  Iteration          Convergence                     Energy [au]
 *******************************************************************************
                          1        0.796494                    -458.605286657034
                          2        0.424704                    -458.618895191650
                          3        0.618937E-01                -458.635381741132
                          4        0.280509E-02                -458.636513243900
                          5        0.574566E-04                -458.636515509119
                          6        0.630059E-06                -458.636515510439

 Energy components [Hartree]           Total Energy ::         -458.636515510439
                                        Band Energy ::         -264.340875391758
                                     Kinetic Energy ::          459.064448624850
                                   Potential Energy ::         -917.700964135289
                                      Virial (-V/T) ::            1.999067814736
                                        Core Energy ::         -634.860721068291
                                          XC Energy ::          -26.651486697971
                                     Coulomb Energy ::          202.875692255823

 Orbital energies  State     L     Occupation   Energy[a.u.]          Energy[eV]

                       1     0          2.000    -100.342546        -2730.459539
                       2     0          2.000      -9.181035         -249.828673
                       3     0          2.000      -0.751326          -20.444610
 
                       1     1          6.000      -7.033986         -191.404486
                       2     1          5.000      -0.317429           -8.637694
 

 Total Electron Density at R=0:                                      3104.100057

 Guess for atomic kind: H

 Electronic structure
    Total number of core electrons                                          0.00
    Total number of valence electrons                                       1.00
    Total number of electrons                                               1.00
    Multiplicity                                                   not specified
    S      1.00
 

 *******************************************************************************
                  Iteration          Convergence                     Energy [au]
 *******************************************************************************
                          1        0.917598E-02                  -0.444895232610
                          2        0.101733E-02                  -0.444969959338
                          3        0.739292E-04                  -0.444971980690
                          4        0.601377E-07                  -0.444971989573

 Energy components [Hartree]           Total Energy ::           -0.444971989573
                                        Band Energy ::           -0.230448725171
                                     Kinetic Energy ::            0.428990089350
                                   Potential Energy ::           -0.873962078923
                                      Virial (-V/T) ::            2.037254707321
                                        Core Energy ::           -0.496265746842
                                          XC Energy ::           -0.234272986041
                                     Coulomb Energy ::            0.285566743311

 Orbital energies  State     L     Occupation   Energy[a.u.]          Energy[eV]

                       1     0          1.000      -0.230449           -6.270829
 

 Total Electron Density at R=0:                                         0.247098
 Re-scaling the density matrix to get the right number of electrons
                  # Electrons              Trace(P)               Scaling factor
                           18                18.000                        1.000


 SCF WAVEFUNCTION OPTIMIZATION

  ----------------------------------- OT ---------------------------------------
  Minimizer      : DIIS                : direct inversion
                                         in the iterative subspace
                                         using   7 DIIS vectors
                                         safer DIIS on
  Preconditioner : FULL_ALL            : diagonalization, state selective
  Precond_solver : DEFAULT
  stepsize       :    0.15000000                  energy_gap     :    0.08000000
  eps_taylor     :   0.10000E-15                  max_taylor     :             4
  ----------------------------------- OT ---------------------------------------

  Step     Update method      Time    Convergence         Total energy    Change
  ------------------------------------------------------------------------------
     1 OT DIIS     0.15E+00   26.0     0.20096074      -458.6954472796 -4.59E+02
     2 OT DIIS     0.15E+00   16.6     0.07278319      -460.2925557307 -1.60E+00
     3 OT DIIS     0.15E+00   16.9     0.01265464      -460.5269050979 -2.34E-01
     4 OT DIIS     0.15E+00   16.5     0.00826868      -460.5341199097 -7.21E-03
     5 OT DIIS     0.15E+00   17.7     0.00390108      -460.5405342255 -6.41E-03
     6 OT DIIS     0.15E+00   17.6     0.00140262      -460.5422357894 -1.70E-03
     7 OT DIIS     0.15E+00   17.6     0.00072849      -460.5424120629 -1.76E-04
     8 OT DIIS     0.15E+00   17.7     0.00033915      -460.5424769565 -6.49E-05
     9 OT DIIS     0.15E+00   18.0     0.00013428      -460.5424888767 -1.19E-05
    10 OT DIIS     0.15E+00   17.3     0.00006265      -460.5424908423 -1.97E-06
    11 OT DIIS     0.15E+00   17.7     0.00002402      -460.5424912375 -3.95E-07
    12 OT DIIS     0.15E+00   18.1     0.00001019      -460.5424912885 -5.10E-08
    13 OT DIIS     0.15E+00   17.9     0.00000309      -460.5424912978 -9.30E-09
    14 OT DIIS     0.15E+00   17.7     0.00000146      -460.5424912985 -7.28E-10
    15 OT DIIS     0.15E+00   17.4     0.00000074      -460.5424912987 -1.85E-10
    16 OT DIIS     0.15E+00   17.7     0.00000029      -460.5424912988 -7.77E-11
    17 OT DIIS     0.15E+00   17.8     0.00000006      -460.5424912988 -7.84E-12
    18 OT DIIS     0.15E+00   17.5     0.00000003      -460.5424912988 -1.64E-11
    19 OT DIIS     0.15E+00   17.5     0.00000001      -460.5424912988  2.79E-12
    20 OT DIIS     0.15E+00   17.1     6.2112E-09      -460.5424912988 -5.68E-12

  *** SCF run converged in    20 steps ***


  Electronic density on regular grids:        -10.2622064767        7.7377935233
  Core density on regular grids:               18.0000000000       -0.0000000000
  Hard and soft densities (Lebedev):          -20.6574374777      -12.9196449346
  Total Rho_soft + Rho1_hard - Rho1_soft      -17.9999990197
  Total charge density (r-space):               0.0000009803
  Total Rho_soft + Rho0_soft (g-space):        -0.0000001982

  Overlap energy of the core charge distribution:               0.00030904533830
  Self energy of the core charge distribution:               -200.25290035557865
  Core Hamiltonian energy:                                   -264.82114239055988
  Hartree energy:                                              49.59848155440598
  Exchange-correlation energy:                                 -5.53440342858643

  GAPW| Exc from hard and soft atomic rho1:                   -22.99512498750787
  GAPW| local Eh = 1 center integrals:                        -16.53771073633131

  Total energy:                                              -460.54249129881987

  outer SCF iter =    1 RMS gradient =   0.62E-08 energy =       -460.5424912988
  outer SCF loop converged in   1 iterations or   20 steps


 !-----------------------------------------------------------------------------!
                     Mulliken Population Analysis

 #  Atom  Element  Kind  Atomic population                           Net charge
       1     Cl       1         17.168541                             -0.168541
       2     H        2          0.831459                              0.168541
 # Total charge                             18.000000                 -0.000000

 !-----------------------------------------------------------------------------!

 !-----------------------------------------------------------------------------!
                           Hirshfeld Charges

  #Atom  Element  Kind  Ref Charge     Population                    Net charge
      1       Cl     1      17.000         17.610                        -0.610
      2       H      2       1.000          0.390                         0.610

  Total Charge                                                            0.000
 !-----------------------------------------------------------------------------!

 ENERGY| Total FORCE_EVAL ( QS ) energy [a.u.]:             -460.542491298821005

 --------  Informations at step =     0 ------------
  Optimization Method        =                 BFGS
  Total Energy               =      -460.5424912988
  Used time                  =              371.979
 ---------------------------------------------------

 --------------------------
 OPTIMIZATION STEP:      1
 --------------------------

 Number of electrons:                                                         18
 Number of occupied orbitals:                                                  9
 Number of molecular orbitals:                                                 9

 Number of orbital functions:                                                 43
 Number of independent orbital functions:                                     43

 Parameters for the always stable predictor-corrector (ASPC) method:

  ASPC order: 0

  B(1) =   1.000000

 Extrapolation method: ASPC


 SCF WAVEFUNCTION OPTIMIZATION

  ----------------------------------- OT ---------------------------------------
  Minimizer      : DIIS                : direct inversion
                                         in the iterative subspace
                                         using   7 DIIS vectors
                                         safer DIIS on
  Preconditioner : FULL_ALL            : diagonalization, state selective
  Precond_solver : DEFAULT
  stepsize       :    0.15000000                  energy_gap     :    0.08000000
  eps_taylor     :   0.10000E-15                  max_taylor     :             4
  ----------------------------------- OT ---------------------------------------

  Step     Update method      Time    Convergence         Total energy    Change
  ------------------------------------------------------------------------------
     1 OT DIIS     0.15E+00   23.1     0.01403396      -460.6104039238 -4.61E+02
     2 OT DIIS     0.15E+00   17.0     0.00458630      -460.6170770433 -6.67E-03
     3 OT DIIS     0.15E+00   17.6     0.00163100      -460.6178303174 -7.53E-04
     4 OT DIIS     0.15E+00   17.9     0.00026579      -460.6179291629 -9.88E-05
     5 OT DIIS     0.15E+00   17.3     0.00006302      -460.6179319223 -2.76E-06
     6 OT DIIS     0.15E+00   17.9     0.00000799      -460.6179320733 -1.51E-07
     7 OT DIIS     0.15E+00   17.6     0.00000086      -460.6179320758 -2.54E-09
     8 OT DIIS     0.15E+00   17.2     0.00000015      -460.6179320758  3.34E-11
     9 OT DIIS     0.15E+00   17.1     0.00000002      -460.6179320759 -9.60E-11
    10 OT DIIS     0.15E+00   17.8     5.5045E-09      -460.6179320758  4.18E-11

  *** SCF run converged in    10 steps ***


  Electronic density on regular grids:        -10.2658955005        7.7341044995
  Core density on regular grids:               18.0000000000       -0.0000000000
  Hard and soft densities (Lebedev):          -19.5998364682      -11.8657332163
  Total Rho_soft + Rho1_hard - Rho1_soft      -17.9999987525
  Total charge density (r-space):               0.0000012475
  Total Rho_soft + Rho0_soft (g-space):         0.0000000686

  Overlap energy of the core charge distribution:               0.00000803368272
  Self energy of the core charge distribution:               -200.25290035557865
  Core Hamiltonian energy:                                   -265.05750559344875
  Hartree energy:                                              49.76093206532498
  Exchange-correlation energy:                                 -5.46397794608321

  GAPW| Exc from hard and soft atomic rho1:                   -22.98238324525012
  GAPW| local Eh = 1 center integrals:                        -16.62210503449164

  Total energy:                                              -460.61793207584464

  outer SCF iter =    1 RMS gradient =   0.55E-08 energy =       -460.6179320758
  outer SCF loop converged in   1 iterations or   10 steps


 !-----------------------------------------------------------------------------!
                     Mulliken Population Analysis

 #  Atom  Element  Kind  Atomic population                           Net charge
       1     Cl       1         17.222312                             -0.222312
       2     H        2          0.777688                              0.222312
 # Total charge                             18.000000                  0.000000

 !-----------------------------------------------------------------------------!

 !-----------------------------------------------------------------------------!
                           Hirshfeld Charges

  #Atom  Element  Kind  Ref Charge     Population                    Net charge
      1       Cl     1      17.000         17.644                        -0.644
      2       H      2       1.000          0.356                         0.644

  Total Charge                                                            0.000
 !-----------------------------------------------------------------------------!

 ENERGY| Total FORCE_EVAL ( QS ) energy [a.u.]:             -460.617932075837871

 --------  Informations at step =     1 ------------
  Optimization Method        =                 BFGS
  Total Energy               =      -460.6179320758
  Real energy change         =        -0.0754407770
  Predicted change in energy =        -0.0687461103
  Scaling factor             =         0.0000000000
  Step size                  =         0.1685775331
  Trust radius               =         0.4724315332
  Decrease in energy         =                  YES
  Used time                  =              191.735

  Convergence check :
  Max. step size             =         0.1685775331
  Conv. limit for step size  =         0.0030000000
  Convergence in step size   =                   NO
  RMS step size              =         0.0973282837
  Conv. limit for RMS step   =         0.0015000000
  Convergence in RMS step    =                   NO
  Max. gradient              =         0.0894328359
  Conv. limit for gradients  =         0.0004500000
  Conv. for gradients        =                   NO
  RMS gradient               =         0.0516340704
  Conv. limit for RMS grad.  =         0.0003000000
  Conv. for gradients        =                   NO
 ---------------------------------------------------
 Estimated peak process memory after this step [MiB]                         600

 --------------------------
 OPTIMIZATION STEP:      2
 --------------------------

 Number of electrons:                                                         18
 Number of occupied orbitals:                                                  9
 Number of molecular orbitals:                                                 9

 Number of orbital functions:                                                 43
 Number of independent orbital functions:                                     43

 Parameters for the always stable predictor-corrector (ASPC) method:

  ASPC order: 0

  B(1) =   2.000000
  B(2) =  -1.000000

 Extrapolation method: ASPC


 SCF WAVEFUNCTION OPTIMIZATION

  ----------------------------------- OT ---------------------------------------
  Minimizer      : DIIS                : direct inversion
                                         in the iterative subspace
                                         using   7 DIIS vectors
                                         safer DIIS on
  Preconditioner : FULL_ALL            : diagonalization, state selective
  Precond_solver : DEFAULT
  stepsize       :    0.15000000                  energy_gap     :    0.08000000
  eps_taylor     :   0.10000E-15                  max_taylor     :             4
  ----------------------------------- OT ---------------------------------------

  Step     Update method      Time    Convergence         Total energy    Change
  ------------------------------------------------------------------------------
     1 OT DIIS     0.15E+00   23.3     0.01035800      -460.6198500864 -4.61E+02
     2 OT DIIS     0.15E+00   17.9     0.00355100      -460.6235578882 -3.71E-03
     3 OT DIIS     0.15E+00   17.7     0.00130045      -460.6240127427 -4.55E-04
     4 OT DIIS     0.15E+00   17.6     0.00020004      -460.6240724665 -5.97E-05
     5 OT DIIS     0.15E+00   18.3     0.00004875      -460.6240739493 -1.48E-06
     6 OT DIIS     0.15E+00   17.8     0.00000632      -460.6240740373 -8.80E-08
     7 OT DIIS     0.15E+00   17.3     0.00000055      -460.6240740388 -1.48E-09
     8 OT DIIS     0.15E+00   16.9     0.00000011      -460.6240740387  1.45E-10
     9 OT DIIS     0.15E+00   17.9     0.00000002      -460.6240740384  2.28E-10
    10 OT DIIS     0.15E+00   17.6     4.5165E-09      -460.6240740384  7.91E-11

  *** SCF run converged in    10 steps ***


  Electronic density on regular grids:        -10.2667344607        7.7332655393
  Core density on regular grids:               18.0000000000       -0.0000000000
  Hard and soft densities (Lebedev):          -19.3583653805      -11.6251011355
  Total Rho_soft + Rho1_hard - Rho1_soft      -17.9999987057
  Total charge density (r-space):               0.0000012943
  Total Rho_soft + Rho0_soft (g-space):         0.0000001153

  Overlap energy of the core charge distribution:               0.00000263298936
  Self energy of the core charge distribution:               -200.25290035557865
  Core Hamiltonian energy:                                   -265.10819766244202
  Hartree energy:                                              49.80069471375494
  Exchange-correlation energy:                                 -5.44721394509960

  GAPW| Exc from hard and soft atomic rho1:                   -22.97987799293623
  GAPW| local Eh = 1 center integrals:                        -16.63658142905791

  Total energy:                                              -460.62407403837011

  outer SCF iter =    1 RMS gradient =   0.45E-08 energy =       -460.6240740384
  outer SCF loop converged in   1 iterations or   10 steps


 !-----------------------------------------------------------------------------!
                     Mulliken Population Analysis

 #  Atom  Element  Kind  Atomic population                           Net charge
       1     Cl       1         17.232753                             -0.232753
       2     H        2          0.767247                              0.232753
 # Total charge                             18.000000                  0.000000

 !-----------------------------------------------------------------------------!

 !-----------------------------------------------------------------------------!
                           Hirshfeld Charges

  #Atom  Element  Kind  Ref Charge     Population                    Net charge
      1       Cl     1      17.000         17.650                        -0.650
      2       H      2       1.000          0.350                         0.650

  Total Charge                                                            0.000
 !-----------------------------------------------------------------------------!

 ENERGY| Total FORCE_EVAL ( QS ) energy [a.u.]:             -460.624074038112610

 --------  Informations at step =     2 ------------
  Optimization Method        =                 BFGS
  Total Energy               =      -460.6240740381
  Real energy change         =        -0.0061419623
  Predicted change in energy =        -0.0042351017
  Scaling factor             =         0.0000000000
  Step size                  =         0.0473551428
  Trust radius               =         0.4724315332
  Decrease in energy         =                  YES
  Used time                  =              193.803

  Convergence check :
  Max. step size             =         0.0473551428
  Conv. limit for step size  =         0.0030000000
  Convergence in step size   =                   NO
  RMS step size              =         0.0273404856
  Conv. limit for RMS step   =         0.0015000000
  Convergence in RMS step    =                   NO
  Max. gradient              =         0.0423658941
  Conv. limit for gradients  =         0.0004500000
  Conv. for gradients        =                   NO
  RMS gradient               =         0.0244599579
  Conv. limit for RMS grad.  =         0.0003000000
  Conv. for gradients        =                   NO
 ---------------------------------------------------
 Estimated peak process memory after this step [MiB]                         603

 --------------------------
 OPTIMIZATION STEP:      3
 --------------------------

 Number of electrons:                                                         18
 Number of occupied orbitals:                                                  9
 Number of molecular orbitals:                                                 9

 Number of orbital functions:                                                 43
 Number of independent orbital functions:                                     43

 Parameters for the always stable predictor-corrector (ASPC) method:

  ASPC order: 1

  B(1) =   2.500000
  B(2) =  -2.000000
  B(3) =   0.500000

 Extrapolation method: ASPC


 SCF WAVEFUNCTION OPTIMIZATION

  ----------------------------------- OT ---------------------------------------
  Minimizer      : DIIS                : direct inversion
                                         in the iterative subspace
                                         using   7 DIIS vectors
                                         safer DIIS on
  Preconditioner : FULL_ALL            : diagonalization, state selective
  Precond_solver : DEFAULT
  stepsize       :    0.15000000                  energy_gap     :    0.08000000
  eps_taylor     :   0.10000E-15                  max_taylor     :             4
  ----------------------------------- OT ---------------------------------------

  Step     Update method      Time    Convergence         Total energy    Change
  ------------------------------------------------------------------------------
     1 OT DIIS     0.15E+00   23.8     0.00466524      -460.6253651364 -4.61E+02
     2 OT DIIS     0.15E+00   14.5     0.00161290      -460.6261238283 -7.59E-04
     3 OT DIIS     0.15E+00   14.9     0.00060142      -460.6262188620 -9.50E-05
     4 OT DIIS     0.15E+00   15.2     0.00009486      -460.6262314511 -1.26E-05
     5 OT DIIS     0.15E+00   15.1     0.00002228      -460.6262317863 -3.35E-07
     6 OT DIIS     0.15E+00   14.3     0.00000293      -460.6262318045 -1.82E-08
     7 OT DIIS     0.15E+00   14.8     0.00000029      -460.6262318050 -4.91E-10
     8 OT DIIS     0.15E+00   14.7     0.00000003      -460.6262318049  4.82E-11
     9 OT DIIS     0.15E+00   14.5     9.0695E-09      -460.6262318050 -4.02E-11

  *** SCF run converged in     9 steps ***


  Electronic density on regular grids:        -10.2674030476        7.7325969524
  Core density on regular grids:               18.0000000000       -0.0000000000
  Hard and soft densities (Lebedev):          -19.1658678710      -11.4332722400
  Total Rho_soft + Rho1_hard - Rho1_soft      -17.9999986786
  Total charge density (r-space):               0.0000013214
  Total Rho_soft + Rho0_soft (g-space):         0.0000001420

  Overlap energy of the core charge distribution:               0.00000093216594
  Self energy of the core charge distribution:               -200.25290035557865
  Core Hamiltonian energy:                                   -265.14884077927945
  Hartree energy:                                              49.83386904060250
  Exchange-correlation energy:                                 -5.43311538476568

  GAPW| Exc from hard and soft atomic rho1:                   -22.97794916579369
  GAPW| local Eh = 1 center integrals:                        -16.64729609232154

  Total energy:                                              -460.62623180497059

  outer SCF iter =    1 RMS gradient =   0.91E-08 energy =       -460.6262318050
  outer SCF loop converged in   1 iterations or    9 steps


 !-----------------------------------------------------------------------------!
                     Mulliken Population Analysis

 #  Atom  Element  Kind  Atomic population                           Net charge
       1     Cl       1         17.240344                             -0.240344
       2     H        2          0.759656                              0.240344
 # Total charge                             18.000000                  0.000000

 !-----------------------------------------------------------------------------!

 !-----------------------------------------------------------------------------!
                           Hirshfeld Charges

  #Atom  Element  Kind  Ref Charge     Population                    Net charge
      1       Cl     1      17.000         17.654                        -0.654
      2       H      2       1.000          0.346                         0.654

  Total Charge                                                            0.000
 !-----------------------------------------------------------------------------!

 ENERGY| Total FORCE_EVAL ( QS ) energy [a.u.]:             -460.626231804981103

 --------  Informations at step =     3 ------------
  Optimization Method        =                 BFGS
  Total Energy               =      -460.6262318050
  Real energy change         =        -0.0021577669
  Predicted change in energy =        -0.0018058577
  Scaling factor             =         0.0000000000
  Step size                  =         0.0426253499
  Trust radius               =         0.4724315332
  Decrease in energy         =                  YES
  Used time                  =              154.171

  Convergence check :
  Max. step size             =         0.0426253499
  Conv. limit for step size  =         0.0030000000
  Convergence in step size   =                   NO
  RMS step size              =         0.0246097136
  Conv. limit for RMS step   =         0.0015000000
  Convergence in RMS step    =                   NO
  Max. gradient              =         0.0095922066
  Conv. limit for gradients  =         0.0004500000
  Conv. for gradients        =                   NO
  RMS gradient               =         0.0055380609
  Conv. limit for RMS grad.  =         0.0003000000
  Conv. for gradients        =                   NO
 ---------------------------------------------------
 Estimated peak process memory after this step [MiB]                         605

 --------------------------
 OPTIMIZATION STEP:      4
 --------------------------

 Number of electrons:                                                         18
 Number of occupied orbitals:                                                  9
 Number of molecular orbitals:                                                 9

 Number of orbital functions:                                                 43
 Number of independent orbital functions:                                     43

 Parameters for the always stable predictor-corrector (ASPC) method:

  ASPC order: 2

  B(1) =   2.800000
  B(2) =  -2.800000
  B(3) =   1.200000
  B(4) =  -0.200000

 Extrapolation method: ASPC


 SCF WAVEFUNCTION OPTIMIZATION

  ----------------------------------- OT ---------------------------------------
  Minimizer      : DIIS                : direct inversion
                                         in the iterative subspace
                                         using   7 DIIS vectors
                                         safer DIIS on
  Preconditioner : FULL_ALL            : diagonalization, state selective
  Precond_solver : DEFAULT
  stepsize       :    0.15000000                  energy_gap     :    0.08000000
  eps_taylor     :   0.10000E-15                  max_taylor     :             4
  ----------------------------------- OT ---------------------------------------

  Step     Update method      Time    Convergence         Total energy    Change
  ------------------------------------------------------------------------------
     1 OT DIIS     0.15E+00   21.8     0.00369172      -460.6258245177 -4.61E+02
     2 OT DIIS     0.15E+00   14.4     0.00126955      -460.6263005201 -4.76E-04
     3 OT DIIS     0.15E+00   14.7     0.00046097      -460.6263603455 -5.98E-05
     4 OT DIIS     0.15E+00   15.0     0.00007735      -460.6263678499 -7.50E-06
     5 OT DIIS     0.15E+00   15.4     0.00001966      -460.6263680505 -2.01E-07
     6 OT DIIS     0.15E+00   15.5     0.00000224      -460.6263680648 -1.43E-08
     7 OT DIIS     0.15E+00   15.2     0.00000022      -460.6263680652 -4.62E-10
     8 OT DIIS     0.15E+00   15.0     0.00000003      -460.6263680651  1.08E-10
     9 OT DIIS     0.15E+00   14.8     7.0833E-09      -460.6263680650  9.70E-11

  *** SCF run converged in     9 steps ***


  Electronic density on regular grids:        -10.2675829213        7.7324170787
  Core density on regular grids:               18.0000000000       -0.0000000000
  Hard and soft densities (Lebedev):          -19.1139231077      -11.3815073559
  Total Rho_soft + Rho1_hard - Rho1_soft      -17.9999986731
  Total charge density (r-space):               0.0000013269
  Total Rho_soft + Rho0_soft (g-space):         0.0000001480

  Overlap energy of the core charge distribution:               0.00000068364416
  Self energy of the core charge distribution:               -200.25290035557865
  Core Hamiltonian energy:                                   -265.15990455786306
  Hartree energy:                                              49.84311060543263
  Exchange-correlation energy:                                 -5.42915679358687

  GAPW| Exc from hard and soft atomic rho1:                   -22.97743844493533
  GAPW| local Eh = 1 center integrals:                        -16.65007920214039

  Total energy:                                              -460.62636806502746

  outer SCF iter =    1 RMS gradient =   0.71E-08 energy =       -460.6263680650
  outer SCF loop converged in   1 iterations or    9 steps


 !-----------------------------------------------------------------------------!
                     Mulliken Population Analysis

 #  Atom  Element  Kind  Atomic population                           Net charge
       1     Cl       1         17.242244                             -0.242244
       2     H        2          0.757756                              0.242244
 # Total charge                             18.000000                  0.000000

 !-----------------------------------------------------------------------------!

 !-----------------------------------------------------------------------------!
                           Hirshfeld Charges

  #Atom  Element  Kind  Ref Charge     Population                    Net charge
      1       Cl     1      17.000         17.655                        -0.655
      2       H      2       1.000          0.345                         0.655

  Total Charge                                                            0.000
 !-----------------------------------------------------------------------------!

 ENERGY| Total FORCE_EVAL ( QS ) energy [a.u.]:             -460.626368064867506

 --------  Informations at step =     4 ------------
  Optimization Method        =                 BFGS
  Total Energy               =      -460.6263680649
  Real energy change         =        -0.0001362599
  Predicted change in energy =        -0.0001196682
  Scaling factor             =         0.0000000000
  Step size                  =         0.0124756244
  Trust radius               =         0.4724315332
  Decrease in energy         =                  YES
  Used time                  =              155.432

  Convergence check :
  Max. step size             =         0.0124756244
  Conv. limit for step size  =         0.0030000000
  Convergence in step size   =                   NO
  RMS step size              =         0.0072027710
  Conv. limit for RMS step   =         0.0015000000
  Convergence in RMS step    =                   NO
  Max. gradient              =         0.0014294095
  Conv. limit for gradients  =         0.0004500000
  Conv. for gradients        =                   NO
  RMS gradient               =         0.0008252678
  Conv. limit for RMS grad.  =         0.0003000000
  Conv. for gradients        =                   NO
 ---------------------------------------------------
 Estimated peak process memory after this step [MiB]                         607

 --------------------------
 OPTIMIZATION STEP:      5
 --------------------------

 Number of electrons:                                                         18
 Number of occupied orbitals:                                                  9
 Number of molecular orbitals:                                                 9

 Number of orbital functions:                                                 43
 Number of independent orbital functions:                                     43

 Parameters for the always stable predictor-corrector (ASPC) method:

  ASPC order: 3

  B(1) =   3.000000
  B(2) =  -3.428571
  B(3) =   1.928571
  B(4) =  -0.571429
  B(5) =   0.071429

 Extrapolation method: ASPC


 SCF WAVEFUNCTION OPTIMIZATION

  ----------------------------------- OT ---------------------------------------
  Minimizer      : DIIS                : direct inversion
                                         in the iterative subspace
                                         using   7 DIIS vectors
                                         safer DIIS on
  Preconditioner : FULL_ALL            : diagonalization, state selective
  Precond_solver : DEFAULT
  stepsize       :    0.15000000                  energy_gap     :    0.08000000
  eps_taylor     :   0.10000E-15                  max_taylor     :             4
[...]
 -------------------------------------------------------------------------------
 COUNTER                                    TOTAL       BLAS       SMM       ACC
 flops     6 x     6 x     9                57024       0.0%    100.0%      0.0%
 flops     6 x     9 x     6               244944       0.0%    100.0%      0.0%
 flops     9 x     9 x     6               298404       0.0%    100.0%      0.0%
 flops     6 x    37 x     9               351648       0.0%    100.0%      0.0%
 flops     6 x     9 x     9               371304       0.0%    100.0%      0.0%
 flops     9 x     9 x     9               833976       0.0%    100.0%      0.0%
 flops    37 x     9 x     6              1510488       0.0%    100.0%      0.0%
 flops     6 x     9 x    37              1510488       0.0%    100.0%      0.0%
 flops     9 x     9 x    37              1840158       0.0%    100.0%      0.0%
 flops    37 x    37 x     9              2168496       0.0%    100.0%      0.0%
 flops    37 x     9 x     9              2289708       0.0%    100.0%      0.0%
 flops    37 x     9 x    37              9314676       0.0%    100.0%      0.0%
 flops inhomo. stacks                           0       0.0%      0.0%      0.0%
 flops total                        20.791314E+06       0.0%    100.0%      0.0%
 flops max/rank                     18.255906E+06       0.0%    100.0%      0.0%
 matmuls inhomo. stacks                         0       0.0%      0.0%      0.0%
 matmuls total                               3726       0.0%    100.0%      0.0%
 number of processed stacks                  3726       0.0%    100.0%      0.0%
 average stack size                                     0.0       1.0       0.0
 marketing flops                    21.191726E+06
 -------------------------------------------------------------------------------
 # multiplications                           1734
 max memory usage/rank             640.323584E+06
 # max total images/rank                        1
 # max 3D layers                                1
 # MPI messages exchanged                 1553664
 MPI messages size (bytes):
  total size                        79.653168E+06
  min size                           0.000000E+00
  max size                          10.952000E+03
  average size                      51.267948E+00
 MPI breakdown and total messages size (bytes):
             size <=      128             1510698                        0
       128 < size <=     8192               40320                 50674176
      8192 < size <=    32768                2646                 28978992
     32768 < size <=   131072                   0                        0
    131072 < size <=  4194304                   0                        0
   4194304 < size <= 16777216                   0                        0
  16777216 < size                               0                        0
 -------------------------------------------------------------------------------
 -                                                                             -
 -                      DBCSR MESSAGE PASSING PERFORMANCE                      -
 -                                                                             -
 -------------------------------------------------------------------------------
 ROUTINE             CALLS      AVE VOLUME [Bytes]
 MP_Bcast               13                     12.
 MP_Allreduce         9126                      8.
 MP_Alltoall          6765                   5870.
 MP_ISend            55460                    245.
 MP_IRecv            55460                     78.
 -------------------------------------------------------------------------------

 -------------------------------------------------------------------------------
 -                                                                             -
 -                                DBM STATISTICS                               -
 -                                                                             -
 -------------------------------------------------------------------------------
    M  x    N  x    K                                          COUNT     PERCENT
 -------------------------------------------------------------------------------

 -------------------------------------------------------------------------------
 -                                                                             -
 -                                GRID STATISTICS                              -
 -                                                                             -
 -------------------------------------------------------------------------------
 LP    KERNEL             BACKEND                              COUNT     PERCENT
 2     collocate general  CPU                                  10368      18.75%
 2     integrate general  CPU                                   9600      17.36%
 1     collocate ortho    CPU                                   4920       8.90%
 1     integrate ortho    CPU                                   4788       8.66%
 0     collocate ortho    CPU                                   3936       7.12%
 2     integrate ortho    CPU                                   3735       6.76%
 2     collocate ortho    CPU                                   3690       6.67%
 0     integrate ortho    CPU                                   3600       6.51%
 3     integrate ortho    CPU                                   2520       4.56%
 3     collocate ortho    CPU                                   2460       4.45%
 4     integrate ortho    CPU                                   1155       2.09%
 4     collocate ortho    CPU                                   1066       1.93%
 0     collocate general  CPU                                    896       1.62%
 0     integrate general  CPU                                    896       1.62%
 3     integrate general  CPU                                    768       1.39%
 5     integrate ortho    CPU                                    378       0.68%
 5     collocate ortho    CPU                                    328       0.59%
 6     integrate ortho    CPU                                     99       0.18%
 6     collocate ortho    CPU                                     82       0.15%
 7     integrate ortho    CPU                                      6       0.01%
 -------------------------------------------------------------------------------

 MEMORY| Estimated peak process memory [MiB]                                 611

 -------------------------------------------------------------------------------
 ----                             MULTIGRID INFO                            ----
 -------------------------------------------------------------------------------
 count for grid        1:         281021          cutoff [a.u.]          600.00
 count for grid        2:          36393          cutoff [a.u.]          200.00
 count for grid        3:          32852          cutoff [a.u.]           66.67
 count for grid        4:           9413          cutoff [a.u.]           22.22
 count for grid        5:            960          cutoff [a.u.]            7.41
 total gridlevel count  :         360639

 -------------------------------------------------------------------------------
 -                                                                             -
 -                         MESSAGE PASSING PERFORMANCE                         -
 -                                                                             -
 -------------------------------------------------------------------------------

 ROUTINE             CALLS      AVE VOLUME [Bytes]
 MP_Group                6
 MP_Bcast              916                 390448.
 MP_Allreduce         3147                  16082.
 MP_Sync                52
 MP_Alltoall          2386                2679129.
 MP_SendRecv         20664                  49840.
 MP_ISendRecv        20412                  49840.
 MP_Wait             48549
 MP_comm_split          47
 MP_ISend            25764                 244612.
 MP_IRecv            25764                 244628.
 -------------------------------------------------------------------------------


 -------------------------------------------------------------------------------
 -                                                                             -
 -                           R E F E R E N C E S                               -
 -                                                                             -
 -------------------------------------------------------------------------------
 
 CP2K version 2023.2 (Development Version), the CP2K developers group (2023).
 CP2K is freely available from https://www.cp2k.org/ .

 Kuehne,Thomas D.; Iannuzzi,Marcella; Del Ben,Mauro;
 Rybkin,Vladimir V.; Seewald,Patrick; Stein,Frederick; Laino,Teodoro;
 Khaliullin,Rustam Z.; Schuett,Ole; Schiffmann,Florian; Golze,Dorothea;
 Wilhelm,Jan; Chulkov,Sergey; Bani-Hashemian,Mohammad Hossein;
 Weber,Valery; Borstnik,Urban; Taillefumier,Mathieu;
 Jakobovits,Alice Shoshana; Lazzaro,Alfio; Pabst,Hans; Mueller,Tiziano;
 Schade,Robert; Guidon,Manuel; Andermatt,Samuel; Holmberg,Nico;
 Schenter,Gregory K.; Hehn,Anna; Bussy,Augustin; Belleflamme,Fabian;
 Tabacchi,Gloria; Gloess,Andreas; Lass,Michael; Bethune,Iain;
 Mundy,Christopher J.; Plessl,Christian; Watkins,Matt;
 VandeVondele,Joost; Krack,Matthias; Hutter,Juerg. 
 The Journal of Chemical Physics, 152 (19), (2020). 
 CP2K: An electronic structure and molecular dynamics software package -
 Quickstep: Efficient and accurate electronic structure calculations.
 https://doi.org/10.1063/5.0007045

 Schuett, Ole; Messmer, Peter; Hutter, Juerg; VandeVondele, Joost. 
 Electronic Structure Calculations on Graphics Processing Units, John
 Wiley & Sons, Ltd, 173-190 (2016). 
 GPU-Accelerated Sparse Matrix-Matrix Multiplication for
 Linear Scaling Density Functional Theory.
 https://doi.org/10.1002/9781118670712.ch8

 Heinecke, A; Henry, G; Hutchinson, M; Pabst, H. 
 Proceedings of Intl. Supercomputing Conference, 981-991 (2016). 
 LIBXSMM: Accelerating Small Matrix Multiplications
 by Runtime Code Generation.
 https://doi.org/10.1109/SC.2016.83

 Borstnik, U; VandeVondele, J; Weber, V; Hutter, J. 
 PARALLEL COMPUTING, 40 (5-6), 47-58 (2014). 
 Sparse matrix multiplication: The distributed block-compressed sparse
 row library.
 https://doi.org/10.1016/j.parco.2014.03.012

 Hutter, J; Iannuzzi, M; Schiffmann, F; VandeVondele, J. 
 WIREs Comput Mol Sci., 4 (1), 15-25 (2014). 
 CP2K: atomistic simulations of condensed matter systems.
 https://doi.org/10.1002/wcms.1159

 Kuhne, TD; Krack, M; Mohamed, FR; Parrinello, M. 
 PHYSICAL REVIEW LETTERS, 98 (6), 066401 (2007). 
 Efficient and accurate Car-Parrinello-like approach to
 Born-Oppenheimer molecular dynamics.
 https://doi.org/10.1103/PhysRevLett.98.066401

 Frigo, M; Johnson, SG. 
 PROCEEDINGS OF THE IEEE, 93 (2), 216-231 (2005). 
 The design and implementation of FFTW3.
 https://doi.org/10.1109/JPROC.2004.840301

 Kolafa, J. 
 JOURNAL OF COMPUTATIONAL CHEMISTRY, 25 (3), 335-342 (2004). 
 Time-reversible always stable predictor-corrector method for
 molecular dynamics of polarizable molecules.
 https://doi.org/10.1002/jcc.10385

 VandeVondele, J; Hutter, J. 
 JOURNAL OF CHEMICAL PHYSICS, 118 (10), 4365-4369 (2003). 
 An efficient orbital transformation method for electronic structure
 calculations.
 https://doi.org/10.1063/1.1543154

 Lippert, G; Hutter, J; Parrinello, M. 
 THEORETICAL CHEMISTRY ACCOUNTS, 103 (2), 124-140 (1999). 
 The Gaussian and augmented-plane-wave density functional method for ab
 initio molecular dynamics simulations.
 https://doi.org/10.1007/s002140050523

 Krack, M; Parrinello, M. 
 PHYSICAL CHEMISTRY CHEMICAL PHYSICS, 2 (10), 2105-2112 (2000). 
 All-electron ab-initio molecular dynamics.
 https://doi.org/10.1039/b001167n

 Martyna, GJ; Tuckerman, ME. 
 JOURNAL OF CHEMICAL PHYSICS, 110 (6), 2810-2821 (1999). 
 A reciprocal space based method for treating long range interactions in
 ab initio and force-field-based calculations in clusters.
 https://doi.org/10.1063/1.477923

 Perdew, JP; Burke, K; Ernzerhof, M. 
 PHYSICAL REVIEW LETTERS, 77 (18), 3865-3868 (1996). 
 Generalized gradient approximation made simple.
 https://doi.org/10.1103/PhysRevLett.77.3865


 -------------------------------------------------------------------------------
 -                                                                             -
 -                                T I M I N G                                  -
 -                                                                             -
 -------------------------------------------------------------------------------
 SUBROUTINE                       CALLS  ASD         SELF TIME        TOTAL TIME
                                MAXIMUM       AVERAGE  MAXIMUM  AVERAGE  MAXIMUM
 CP2K                                 1  1.0    0.020    0.040 1355.049 1355.053
 cp_geo_opt                           1  2.0    0.003    0.011 1353.362 1353.369
 geoopt_bfgs                          1  3.0    0.004    0.014 1353.359 1353.369
 cp_eval_at                           7  4.0    0.001    0.013 1352.718 1352.757
 qs_energies                          7  5.9    0.002    0.013 1333.241 1333.369
 scf_env_do_scf                       7  6.9    0.000    0.001 1280.948 1281.014
 qs_forces                            6  5.0    0.006    0.030 1219.200 1219.243
 scf_env_do_scf_inner_loop           75  7.9    0.002    0.009 1186.562 1186.619
 qs_scf_new_mos                      75  8.9    0.001    0.013  902.398  903.277
 qs_scf_loop_do_ot                   75  9.9    0.000    0.000  902.397  903.277
 dbcsr_multiply_generic            1734 13.9    0.193    0.401  869.014  872.769
 ot_scf_mini                         75 10.9    0.001    0.001  859.814  860.796
 ot_mini                             75 11.9    0.003    0.014  617.243  617.738
 qs_ot_get_derivative                75 12.9    0.001    0.010  508.444  509.257
 multiply_cannon                   1734 14.9    4.973    5.522  352.781  365.201
 mp_sum_l                          8675 14.4  317.105  324.446  317.105  324.446
 multiply_cannon_loop              1734 15.9    0.528    0.717  293.022  305.453
 multiply_cannon_multrec          13872 16.9  239.881  275.190  239.888  275.195
 qs_ot_get_derivative_taylor         56 13.9    0.001    0.001  264.786  265.267
 rebuild_ks_matrix                   81  9.7    0.000    0.000  228.959  229.703
 qs_ks_build_kohn_sham_matrix        81 10.7    0.022    0.041  228.959  229.703
 qs_ks_update_qs_env                 82  8.9    0.001    0.011  213.938  214.574
 qs_ot_get_p                         82 11.7    0.000    0.000  143.446  143.934
 make_m2s                          3468 14.9    0.039    0.062  129.344  137.719
 pw_transfer                       1870 13.8    0.103    0.154  135.204  136.190
 fft_wrap_pw1pw2                   1627 15.0    0.008    0.019  134.546  135.359
 make_images                       3468 15.9   10.009   10.781  128.113  135.177
 fft3d_ps                          1627 17.0    5.896    6.838  132.386  133.149
 make_images_sizes                 3468 16.9    0.005    0.015  117.269  119.640
 mp_alltoall_i44                   3468 17.9  117.265  119.637  117.265  119.637
 qs_ot_get_derivative_diag           19 14.0    0.001    0.011  102.972  103.436
 mp_waitall_1                    161505 17.9   70.927  102.165   70.927  102.165
 ot_diis_step                        75 12.9    0.008    0.033  101.251  101.446
 qs_rho_update_rho_low               82  9.0    0.006    0.025   93.245   95.801
 init_scf_loop                        7  7.9    0.003    0.155   92.133   92.220
 mp_alltoall_z22v                  1627 19.0   86.237   88.324   86.237   88.324
 apply_preconditioner_dbcsr          82 13.9    0.000    0.000   84.310   85.018
 apply_all                           82 14.9    0.001    0.001   84.310   85.018
 calculate_rho_elec                  82 10.0    0.044    0.056   77.989   79.881
 fft_wrap_pw1pw2_600                974 16.4    0.918    1.111   77.167   78.044
 qs_ot_get_orbitals                  75 11.9    0.000    0.000   77.284   77.844
 sum_up_and_integrate                81 11.7    0.001    0.012   72.613   74.417
 integrate_v_rspace                  81 12.7    0.002    0.026   72.550   74.357
 mp_sum_d                          2314 11.3   68.749   71.829   68.749   71.829
 potential_pw2rs                     81 13.7    0.007    0.025   68.927   69.333
 density_rs2pw                       82 11.0    0.004    0.006   66.511   67.263
 mp_sum_b                          3040 15.2   62.862   64.094   62.862   64.094
 multiply_cannon_metrocomm1       13872 16.9    0.035    0.057   32.488   60.144
 prepare_preconditioner               7  8.9    0.000    0.000   59.551   59.737
 mp_allgather_i34                  1734 15.9   54.172   55.797   54.172   55.797
 copy_dbcsr_to_fm                   133 12.1    0.002    0.006   51.292   51.821
 dbcsr_complete_redistribute        259 13.2    0.012    0.025   50.387   51.580
 qs_vxc_create                       81 11.7    0.004    0.012   51.065   51.201
 xc_vxc_pw_create                    81 12.7    0.227    0.289   51.061   51.199
 transfer_pw2rs                     493 14.3    0.003    0.014   48.262   49.123
 calculate_dm_sparse                 82 10.8    0.000    0.000   47.208   47.685
 x_to_yz                            568 18.3    1.923    2.167   41.368   41.892
 mp_alltoall_d11v                  1696 14.9   37.814   41.205   37.814   41.205
 yz_to_x                            570 18.2    0.274    0.330   39.687   40.961
 xc_pw_derive                       486 14.7    0.003    0.013   39.791   40.635
 make_preconditioner                  7  9.9    0.000    0.000   39.996   40.132
 init_scf_run                         7  6.9    0.000    0.007   39.314   39.379
 scf_env_initial_rho_setup            7  7.9    0.000    0.012   39.313   39.378
 transfer_rs2pw                     498 12.2    0.005    0.024   37.952   38.669
 qs_ot_p2m_diag                      20 13.0    0.002    0.012   36.954   37.310
 qs_ot_p2m_taylor                    62 12.6    0.001    0.001   36.021   36.783
 mp_alltoall_z11v                   489 18.3   35.460   36.459   35.460   36.459
 mp_waitany                       25764 15.1   33.691   36.204   33.691   36.204
 cp_dbcsr_sm_fm_multiply             37 10.9    0.001    0.001   35.611   36.055
 dbcsr_dot_sd                       841 13.4    0.002    0.012   33.743   35.280
 subspace_eigenvalues_ks_dbcsr       14 10.4    0.000    0.000   31.855   32.056
 wfi_extrapolate                      7  8.9    0.004    0.023   31.778   31.850
 transfer_pw2rs_600                 169 14.6    5.019    5.672   30.217   31.105
 multiply_cannon_metrocomm3       13872 16.9    0.035    0.067   19.998   30.718
 mp_alltoall_i22                    509 14.8   27.879   29.960   27.879   29.960
 cp_dbcsr_syevd                      34 12.9    0.005    0.033   28.616   29.131
 dbcsr_new_transposed               698 15.0    0.006    0.026   27.591   28.588
 integrate_vhg0_rspace               81 11.7    0.073    0.110   26.416   28.051
 xc_pw_divergence                    81 13.7    0.001    0.001   26.702   27.500
 -------------------------------------------------------------------------------

 The number of warnings for this run is : 0
 
 -------------------------------------------------------------------------------
  **** **** ******  **  PROGRAM ENDED AT                 2023-12-05 17:49:26.384
 ***** ** ***  *** **   PROGRAM RAN ON                               nesh-clk516
 **    ****   ******    PROGRAM RAN BY                                  suphc355
 ***** **    ** ** **   PROGRAM PROCESS ID                               2022666
  **** **  *******  **  PROGRAM STOPPED IN /gxfs_work/cau/suphc355/homologes/HX/
                                           opt/Cl
