     184
 i =        1, E =     -1235.8617288446
 Bi        28.1130800261        2.7709862461        1.4580650409
 Bi         2.8893239637       16.5831118143        2.3943553727
 Bi        12.6128562895        2.7703152395        2.3997357421
 Bi        18.3914454963       16.5674691651        1.4597819373
  O        26.4405581511        0.9758448292        1.6436859051
  O         4.5601600496       14.7882256652        2.2149471663
  O        10.9407096722        0.9753127681        2.2168166038
  O        20.0612934959       14.7874725919        1.6407678182
  O        26.4532681222        2.1329828652        4.0924947377
  O         4.5464190620       15.9458900132       -0.2338090131
  O        10.9537524851        2.1328540314       -0.2322436077
  O        20.0475544109       15.9436289920        4.0894231640
  O        15.0959315211        2.1633454694        2.2960037175
  O        15.9129387913       15.9372030594        1.5776959670
  O        30.5958919866        2.1632705386        1.5655602462
  O         0.4055308441       15.9734012033        2.2842516046
  O        14.0001842128        1.6949651436       -0.1716232999
  O        17.0083836161       15.4647968441        4.0458487926
  O        29.5006920412        1.6948933930        4.0327612284
  O         1.5011281900       15.5066718146       -0.1820637771
  O        18.1909134618       18.4666415963        0.2431884026
  O        12.8073558409        4.6576521228        3.6167573475
  O         2.6924274578       18.4709169570        3.6158712955
  O        28.3088299901        4.6588587592        0.2409866962
  O        19.2691989311       18.8433933987        1.7107731443
  O        11.7297281540        5.0320172445        2.1481650430
  O         3.7695375250       18.8451358054        2.1473829801
  O        27.2316734325        5.0342929636        1.7089689446
  N        20.5327531695       26.7336491915        1.8432734158
  N        10.4636726198       12.9188832132        2.0213289216
  N         5.0332302050       26.7347286133        2.0186374838
  N        25.9701938015       12.9236783024        1.8360553744
  N        19.1872830276       25.0556741255        1.9130890174
  N        11.8042392576       11.2372507798        1.9521235820
  N         3.6873183886       25.0572112224        1.9477169528
  N        27.3158191650       11.2459704156        1.9071632327
  N        20.6680386290       25.3070715602        3.4230212494
  N        10.3262176009       11.4944123090        0.4400287349
  N         5.1684487716       25.3091722309        0.4381568333
  N        25.8349708770       11.4986176520        3.4168078329
  C        21.1797857282       26.2931889387        2.7975839722
  C         9.8159778181       12.4806123733        1.0664526637
  C         5.6810259637       26.2938473917        1.0650041014
  C        25.3221215155       12.4827913089        2.7895030383
  C        22.3854130277       26.9144675553        3.2015675338
  C         8.6121559450       13.1041200577        0.6613059452
  C         6.8865645822       26.9150217142        0.6608781842
  C        24.1169899945       13.1047164755        3.1944469904
  C        23.0309522758       26.6632588291        4.2646227980
  C         7.9673307499       12.8528168923       -0.4022128126
  C         7.5321032663       26.6629145533       -0.4018846277
  C        23.4713812361       12.8519956172        4.2569908447
  C        23.9916824259       27.3233855274        1.0005354823
  C         7.0076292724       13.5132855000        2.8607512985
  C         8.4930561388       27.3224599498        2.8620460331
  C        22.5102562835       13.5112106808        0.9932656127
  C        24.6513695757        0.6215540776        0.2956274460
  C         6.3479295822       14.4350695727        3.5648453454
  C         9.1526409310        0.6209891729        3.5663224021
  C        21.8498157283       14.4330758184        0.2900120252
  C        24.0716676127        0.9060662590        3.1341536602
  C         6.9273090445       14.7204900080        0.7262543639
  C         8.5734067072        0.9058113828        0.7280417570
  C        22.4294071546       14.7181758636        3.1283127947
  C        23.1198630876        0.2060723602        2.5242429665
  C         7.8783592863       14.0202683311        1.3372114117
  C         7.6216863175        0.2060084785        1.3383119940
  C        23.3812217439       14.0187884344        2.5174332733
  C        25.8556060869        1.2135140389        0.6711509976
  C         5.1444565830       15.0269057454        3.1877176231
  C        10.3564034999        1.2130394203        3.1898225272
  C        20.6456610194       15.0242129494        0.6670026380
  C        19.4204185162       26.2329424729        1.5106486151
  C        11.5736985641       12.4142412598        2.3566991812
  C         3.9210617226       26.2338444380        2.3515708429
  C        27.0819046133       12.4221410814        1.5020608746
  C        18.3951351177       26.9966048845        0.8260899948
  C        12.6022489881       13.1716105675        3.0427585993
  C         2.8955483184       26.9971183132        3.0359796120
  C        28.1073735324       13.1850538867        0.8170781002
  C        18.3715524290        0.0952635268       -0.2228103389
  C        12.6294084545       13.8933585605        4.0913987076
  C         2.8715322418        0.0955406119        4.0850187203
  C        28.1310840946       13.9064368442       -0.2322333485
  C        17.3423638796        0.6403510019       -0.8643253600
  C        13.6620532880       14.4280687706        4.7362174227
  C         1.8420867371        0.6399558885        4.7267872325
  C        29.1602620185       14.4500101367       -0.8752711473
  C        16.1784961412        0.7516526467       -0.2394200804
  C        14.8262536011       14.5321017359        4.1105440910
  C         0.6783150434        0.7512173236        4.1016165254
  C        30.3243355453       14.5613664546       -0.2508226997
  C        16.1600381662       27.6949301868        0.8178965820
  C        14.8420713495       13.8523877962        3.0536417864
  C        31.6608593239       27.6946242731        3.0442295647
  C        -0.6574667477       13.8816034378        0.8065245634
  C        17.1954755271       27.1182019672        1.3997754320
  C        13.8027619713       13.2852462153        2.4690616183
  C         1.6958544075       27.1182706038        2.4622461501
  C        29.3077952180       13.3054959964        1.3893866284
  C        15.1152786727        1.5641807239       -0.6328597373
  C        15.8937683183       15.3365840813        4.5069316044
  C        30.6157214884        1.5642019468        4.4943425734
  C         0.3862267973       15.3751698583       -0.6439692233
  C        19.8105951806       24.5575979525        2.8534256077
  C        11.1808650227       10.7425776624        1.0104799997
  C         4.3113538556       24.5594941161        1.0076800377
  C        26.6911907987       10.7482365402        2.8468429966
  C        19.5367318229       23.2467570908        3.3015124523
  C        11.4546787451        9.4329407822        0.5611604317
  C         4.0367776661       23.2496179205        0.5581637201
  C        26.9661500632        9.4387246395        3.2973086257
  C        18.8649184116       22.2791474055        2.6422083772
  C        12.1275331516        8.4659128195        1.2201988968
  C         3.3646846423       22.2819841370        1.2169686803
  C        27.6376314870        8.4704613614        2.6385988353
  C        18.5116140631       21.1482413935        3.2429508643
  C        12.4821823488        7.3363598834        0.6177542756
  C         3.0120544262       21.1512986029        0.6154597241
  C        27.9898870362        7.3397857798        3.2405589786
  C        18.9729512080       20.6847179544        4.3116420483
  C        12.0216959381        6.8732674291       -0.4513969787
  C         3.4735334204       20.6881211370       -0.4534654747
  C        27.5283620375        6.8768655243        4.3095557095
  C        19.6251033473       21.6041530822        1.1140521002
  C        11.3678492683        7.7922699814        2.7472756425
  C         4.1258023032       21.6080446208        2.7451095022
  C        26.8764430393        7.7973336561        1.1106725113
  C        19.9660410904       22.7160397267        4.3756167269
  C        11.0254933642        8.9032621055       -0.5132639910
  C         4.4666376283       22.7197716457       -0.5161065491
  C        26.5359328431        8.9090266050        4.3714590452
  C        18.8384235641       19.3381094464        0.7501566652
  C        12.1585427560        5.5276436058        3.1095901487
  C         3.3398284562       19.3415079156        3.1084287072
  C        27.6614439188        5.5301154914        0.7479138608
  H        11.7628552820       14.1398590576        4.4733670449
  H        13.5045213311       15.1775650389        5.3568534171
  H        15.7393702871       13.7315576474        2.6803413945
  H        14.0375219005       12.5269943877        1.8871902887
  H        12.8660481989        8.8355875014        1.7621178707
  H        13.1750567381        6.7587658234        1.0047888368
  H        10.2851593831        9.3962762713       -0.9154763191
  H         6.6146533750       15.5731877435        1.0941357443
  H         8.4551635532       14.6002370073        1.8864216701
  H         8.2235206521       12.0073762299       -0.8211518173
  H        29.5476561355       12.5495471033        1.9720436043
  H        27.2630882201       14.1470674486       -0.6146697863
  H        28.9973871912       15.1969850775       -1.4973627945
  H         0.2402258214       13.7660789146        1.1805731313
  H        22.1165882162       15.5707759509        2.7604284004
  H        23.7289855636       12.0073919850        4.6769774951
  H        23.9572791282       14.5992038980        1.9678139041
  H        25.7967440958        9.4033567988        4.7740012710
  H        28.3771447435        8.8385222498        2.0966858676
  H        28.6815068890        6.7610574898        2.8527704204
  H        21.8805794568       12.9770872898        1.5385803403
  H         7.0453826834        0.7858575746        1.8880797356
  H        17.8197905469       20.5702492635        2.8543593670
  H        20.7050225754       23.2098846754        4.7792146192
  H        26.1822918670        7.3670379918        1.6677630534
  H        18.1262454826       22.6478367342        2.0997431308
  H        22.7744031815       25.8184196090        4.6848678815
  H        24.6221402395       26.7900685809        1.5458051957
  H        16.9557646712       26.3628192735        1.9831636121
  H        15.2625565814       27.5794898099        1.1924193167
  H         6.3772107987       12.9800990417        2.3153712589
  H         5.2060219259       23.2137969839       -0.9187409160
  H        20.3190322530       21.1726793270        1.6707822363
  H         2.6255827259       22.6505047692        1.7591023849
  H         2.3202018369       20.5729008573        1.0033793688
  H         7.2749228658       25.8182607363       -0.8221155732
  H         1.4563781577       26.3625100870        1.8791913581
  H        10.6741954343        7.3603234159        2.1908902613
  H        19.2394608322        0.3347102794       -0.6064059516
  H        17.5052375033        1.3874672463       -1.4862563464
  H        24.3847225854        1.7582315776        2.7653083391
  H        22.5431277740        0.7858298640        1.9747799678
  H         3.7393522066        0.3353463184        4.4685745508
  H         2.0047251181        1.3871463148        5.3486826486
  H         8.8862774652        1.7583607821        1.0960791276
  H        30.7634640645       27.5791657114        2.6694892231
  H         4.8196474998       21.1772922721        2.1879536921
  H         9.1234392223       26.7888068998        2.3169830306
     184
 i =        2, E =     -1236.0844782559
 Bi        28.0793580127        2.7886076422        1.2086086881
 Bi         2.9231373985       16.6012072135        2.6443553727
 Bi        12.5793494111        2.7879906626        2.6494425947
 Bi        18.4255651027       16.5835311863        1.2119140750
  O        26.2871958717        0.8369582611        1.6205145831
  O         4.7136449754       14.6504790077        2.2381657212
  O        10.7875355604        0.8366811287        2.2402563238
  O        20.2140110621       14.6494052141        1.6168658016
  O        26.3586448635        2.0791694980        3.9808525108
  O         4.6407877787       15.8925714231       -0.1228610591
  O        10.8594543905        2.0789986347       -0.1203593057
  O        20.1416441250       15.8882340418        3.9759115291
  O        15.2922361364        2.0890911758        2.3185603162
  O        15.7141838110       15.8643573639        1.5544991653
  O        30.7927158941        2.0893145336        1.5426923707
  O         0.2084067762       15.8994714235        2.3080106659
  O        14.0986341216        1.6253553132       -0.0577975349
  O        16.9095194720       15.4017585769        3.9329033012
  O        29.5993967054        1.6255173779        3.9187024457
  O         1.4024579953       15.4375967193       -0.0682325815
  O        18.2224050008       18.5792980848        0.1187396973
  O        12.7757549928        4.7700267318        3.7406988482
  O         2.7232624295       18.5833167631        3.7399846842
  O        28.2776224841        4.7715263302        0.1159933917
  O        19.3714408381       19.0383651672        1.6860404626
  O        11.6277638941        5.2266819282        2.1733395674
  O         3.8714095220       19.0410487008        2.1723828294
  O        27.1295663249        5.2310639989        1.6838530929
  N        20.4803686151       26.7290493714        1.9276482354
  N        10.5151888472       12.9132439346        1.9383356750
  N         4.9819380557       26.7291307262        1.9355716198
  N        26.0203869608       12.9173161444        1.9178536009
  N        19.1982354978       25.1215934131        1.9850768414
  N        11.7933224192       11.3023011030        1.8812553416
  N         3.6992668607       25.1222918235        1.8770921187
  N        27.3026871611       11.3103252252        1.9765216125
  N        20.7291273319       25.2596682114        3.3626880494
  N        10.2649009452       11.4464154866        0.5011629077
  N         5.2308100047       25.2604991146        0.4994681601
  N        25.7714229292       11.4489556061        3.3547811828
  C        21.1598134839       26.2888365720        2.8164731675
  C         9.8370374493       12.4772660762        1.0467865854
  C         5.6595597989       26.2916492500        1.0443732343
  C        25.3447993735       12.4820405198        2.8112782736
  C        22.4399882054       26.8735379116        3.1501951969
  C         8.5575911194       13.0630429966        0.7125995405
  C         6.9416638808       26.8734274310        0.7127697083
  C        24.0612567685       13.0622537930        3.1420317156
  C        23.0010669749       26.6890303436        4.2419615794
  C         7.9972497474       12.8787246080       -0.3796962624
  C         7.5019241025       26.6891118783       -0.3796965200
  C        23.5017569104       12.8786864736        4.2353127132
  C        23.9798278261       27.3254814425        0.9414166446
  C         7.0195391946       13.5155719386        2.9194664481
  C         8.4810088406       27.3248918331        2.9208084891
  C        22.5224092686       13.5136836156        0.9354004211
  C        24.6485447559        0.6484316490        0.3262362239
  C         6.3512624637       14.4620545197        3.5340524108
  C         9.1498888847        0.6477079536        3.5357909236
  C        21.8528471162       14.4590003214        0.3202299544
  C        24.0714915320        0.8441489451        3.1816834408
  C         6.9274167008       14.6578623668        0.6792523711
  C         8.5729388254        0.8440690252        0.6802272583
  C        22.4294912899       14.6562971977        3.1756722186
  C        23.0903953774        0.2370303843        2.5517382822
  C         7.9076369848       14.0503464740        1.3103628168
  C         7.5920737282        0.2371073745        1.3107188025
  C        23.4110768080       14.0500265705        2.5455186827
  C        25.8006593896        1.3258873940        0.7539795716
  C         5.1987807482       15.1378639652        3.1061413325
  C        10.3012213259        1.3255079413        3.1070035413
  C        20.7019884676       15.1369207514        0.7499479109
  C        19.4461302595       26.2225026978        1.5082589113
  C        11.5484159422       12.4041149155        2.3572528927
  C         3.9460915850       26.2240802736        2.3524281459
  C        27.0574044491       12.4131183720        1.5027243677
  C        18.3870806444       27.0369845697        0.8846111498
  C        12.6102721898       13.2124291368        2.9832142813
  C         2.8873057773       27.0374883665        2.9775775331
  C        28.1159442755       13.2248343353        0.8747931471
  C        18.3376774086        0.0615874617       -0.1790352452
  C        12.6629552386       13.8571343327        4.0490143054
  C         2.8377518280        0.0618496582        4.0413007657
  C        28.1647680699       13.8726933493       -0.1886676779
  C        17.3197122725        0.6141538151       -0.7919197454
  C        13.6840689636       14.4033593203        4.6628817364
  C         1.8195054379        0.6139415829        4.6543057984
  C        29.1828596541       14.4240916927       -0.8027572045
  C        16.1678908970        0.7800554157       -0.2149627146
  C        14.8387457983       14.5578967124        4.0890391179
  C         0.6678708363        0.7800354107        4.0768167157
  C        30.3344414566       14.5906493461       -0.2254440949
  C        16.2089777059       27.7138179601        0.7820262609
  C        14.7922923869       13.8742456247        3.0878974891
  C        31.7097313426       27.7136232682        3.0800402108
  C        -0.7066723290       13.9007929074        0.7710965546
  C        17.1924599297       27.1215036554        1.3828649579
  C        13.8059477455       13.2873000880        2.4860075318
  C         1.6927359475       27.1215442276        2.4791434153
  C        29.3105978824       13.3090130455        1.3729166822
  C        15.0382784428        1.4452336270       -0.7339762868
  C        15.9679819650       15.2233303745        4.6049678257
  C        30.5381941862        1.4444018800        4.5960023459
  C         0.4641706622       15.2544471364       -0.7456788090
  C        19.8174348043       24.5822018062        2.8662196653
  C        11.1763813699       10.7676215435        0.9964766691
  C         4.3162145933       24.5849805094        0.9934889760
  C        26.6883087025       10.7745683665        2.8625933662
  C        19.5974980772       23.2046257897        3.2400210641
  C        11.3941810409        9.3906211208        0.6222847863
  C         4.0980354573       23.2072565323        0.6199060747
  C        26.9040112660        9.3958426512        3.2348353129
  C        18.8360553281       22.2871272259        2.6670298778
  C        12.1557721310        8.4738209836        1.1958333793
  C         3.3361047560       22.2898431050        1.1919361815
  C        27.6662910498        8.4782646888        2.6635083664
  C        18.5782923729       21.1601277378        3.2890938361
  C        12.4156720156        7.3482107865        0.5720591090
  C         3.0784845216       21.1631318471        0.5694435393
  C        27.9233771738        7.3515641814        3.2864269465
  C        18.9554285413       20.6669610646        4.3401296745
  C        12.0385348053        6.8560009917       -0.4791748210
  C         3.4572297356       20.6704107451       -0.4810075205
  C        27.5444751104        6.8591398937        4.3368882007
  C        19.6285859969       21.6099018028        1.0435602424
  C        11.3656038541        7.7983023482        2.8160047670
  C         4.1286781593       21.6139237255        2.8145206135
  C        26.8738185101        7.8032032842        1.0415887978
  C        19.9416395976       22.7318117610        4.3387792274
  C        11.0500852509        8.9182855460       -0.4764573950
  C         4.4420507698       22.7350746648       -0.4792562623
  C        26.5609870893        8.9244562496        4.3349861286
  C        18.7114047807       19.3389810682        0.8422818970
  C        12.2859950329        5.5297421668        3.0177244351
  C         3.2116329015       19.3430928260        3.0162440272
  C        27.7903013932        5.5318866003        0.8402732309
  H        11.8642418530       14.0557096580        4.4780722355
  H        13.4684689802       15.0710460187        5.2729644007
  H        15.6009974711       13.7693174373        2.6599095395
  H        14.0348179917       12.6071442805        1.9147405476
  H        12.8234188960        8.7908645643        1.7387664191
  H        13.0338022382        6.8364721555        1.0317436885
  H        10.4027436759        9.3878829431       -0.9363577227
  H         6.6386373195       15.4119857463        1.1286748314
  H         8.4062305489       14.5871736985        1.8614741521
  H         8.2498426660       12.1213296613       -0.8401878819
  H        29.5442878926       12.6303414998        1.9441699249
  H        27.3652815425       14.0638819922       -0.6195733551
  H        28.9621758916       15.0902058329       -1.4129436904
  H         0.1016766580       13.8031782162        1.2011981498
  H        22.1403991977       15.4099180138        2.7255322272
  H        23.7548023670       12.1213281869        4.6957339901
  H        23.9081363384       14.5862767941        1.9927552740
  H        25.9138520585        9.3946030653        4.7947655030
  H        28.3338824807        8.7936991201        2.1198021963
  H        28.5403922170        6.8390564644        2.8260650027
  H        21.9863111271       12.9827856524        1.4721559279
  H         7.0942177969        0.7731359516        1.8630560752
  H        17.9611952838       20.6482603880        2.8280381219
  H        20.5880136570       23.2014622845        4.8000728365
  H        26.2162198751        7.4659052123        1.5974836171
  H        18.1691306356       22.6031780866        2.1228339796
  H        22.7480626893       25.9325329922        4.7037185228
  H        24.5160527179       26.7958105449        1.4790908820
  H        16.9590204933       26.4435423470        1.9550110247
  H        15.4010063611       27.6165563844        1.2129891667
  H         6.4830967238       12.9856900382        2.3821255106
  H         5.0888164884       23.2052006397       -0.9395725995
  H        20.2845274207       21.2720114663        1.6007172841
  H         2.6688862097       22.6056110444        1.7359664935
  H         2.4613757812       20.6508760662        1.0299932944
  H         7.2488014996       25.9322404312       -0.8408381803
  H         1.4595953378       26.4432971329        1.9072357890
  H        10.7080053801        7.4592983325        2.2610806149
  H        19.1369070647        0.2516854809       -0.6108884413
  H        17.5403764688        1.2803256388       -1.4020694641
  H        24.3607831407        1.5971226005        2.7307506393
  H        22.5920966179        0.7729667524        1.9996938312
  H         3.6369182362        0.2522627159        4.4731523203
  H         2.0399558259        1.2801624036        5.2644427343
  H         8.8624760628        1.5971477783        1.1308524498
  H        30.9018935498       27.6162785314        2.6489209056
  H         4.7856102810       21.2762765813        2.2581586939
  H         9.0172845369       26.7947382037        2.3835652557
     184
 i =        3, E =     -1235.9571256649
 Bi        28.0633841847        2.8044698085        0.9593450712
 Bi         2.9393079824       16.6182873337        2.8943553727
 Bi        12.5637046604        2.8038131551        2.8991870989
 Bi        18.4394127436       16.6016761570        0.9631937458
  O        26.1887623400        0.8497920902        1.6580320173
  O         4.8117010360       14.6628066897        2.2012649227
  O        10.6885868079        0.8493799350        2.2027362246
  O        20.3130199489       14.6635686920        1.6539870565
  O        26.2506947438        2.0650439792        3.9843037253
  O         4.7479195062       15.8780311771       -0.1257149070
  O        10.7513391154        2.0651273823       -0.1237310606
  O        20.2508930656       15.8736443834        3.9781165837
  O        15.3261838982        1.9665375008        2.2681066085
  O        15.6775740373       15.7483231294        1.6038289632
  O        30.8262311682        1.9661488550        1.5936080361
  O         0.1751744096       15.7754967522        2.2567472820
  O        14.1440170880        1.5097178994       -0.0865945158
  O        16.8622982181       15.2984218412        3.9586407656
  O        29.6447482132        1.5091194670        3.9477016734
  O         1.3572998893       15.3203261849       -0.0971183564
  O        18.2115453942       18.6635784122        0.1312747682
  O        12.7864500802        4.8558875727        3.7296117326
  O         2.7116615780       18.6686910488        3.7276176615
  O        28.2894008302        4.8577280407        0.1283549097
  O        19.3355935148       19.1297763460        1.7240359237
  O        11.6639714420        5.3187580485        2.1354658363
  O         3.8341052976       19.1330534089        2.1343328572
  O        27.1677621734        5.3228285594        1.7223223123
  N        20.4832583250       26.7654215543        1.9425723997
  N        10.5139602497       12.9509712472        1.9214996494
  N         4.9822119504       26.7680455205        1.9173642460
  N        26.0222465706       12.9583122936        1.9388485295
  N        19.1775935503       25.1379784006        1.9968641350
  N        11.8163486211       11.3203365232        1.8667586135
  N         3.6760756572       25.1406346682        1.8618910350
  N        27.3283655339       11.3305455171        1.9948869982
  N        20.7811733109       25.2222395207        3.3499949555
  N        10.2158258170       11.4110018774        0.5118652415
  N         5.2789749381       25.2262992284        0.5097827308
  N        25.7265646186       11.4176887100        3.3466449182
  C        21.1867115383       26.2211037204        2.7642968249
  C         9.8078028153       12.4061973075        1.1011825143
  C         5.6903350158       26.2187141107        1.1005762260
  C        25.3106458795       12.4047313921        2.7517361965
  C        22.4172778012       26.9223749325        3.2198606547
  C         8.5811677298       13.1124028643        0.6422275314
  C         6.9173487881       26.9242632452        0.6411390370
  C        24.0870196346       13.1149709716        3.2156247515
  C        23.0153680143       26.6115332790        4.2256320475
  C         7.9830062283       12.8012140795       -0.3632397865
  C         7.5167419557       26.6111918544       -0.3628999619
  C        23.4864757578       12.8000043401        4.2180287920
  C        23.9958112092       27.2692133117        0.9117911093
  C         7.0037264519       13.4594387283        2.9488271695
  C         8.4969376612       27.2686870630        2.9504307111
  C        22.5065844914       13.4569697359        0.9058737219
  C        24.4999764266        0.7126019933        0.3413207751
  C         6.4983236875       14.5244344781        3.5203947367
  C         9.0011130137        0.7122062317        3.5203943572
  C        22.0024788884       14.5236668788        0.3362155254
  C        24.0293079141        0.8796747338        3.1325790111
  C         6.9696557043       14.6931647077        0.7280756594
  C         8.5309564745        0.8793464181        0.7294759168
  C        22.4716482954       14.6916144315        3.1265834566
  C        23.0449891134        0.2426535788        2.5240877339
  C         7.9528712000       14.0556139130        1.3383684607
  C         7.5468236889        0.2424466070        1.3385089261
  C        23.4555538744       14.0545666750        2.5171978615
  C        25.8224966544        1.1767178834        0.6723190055
  C         5.1788273910       14.9915413666        3.1859404286
  C        10.3235848877        1.1762907335        3.1890570705
  C        20.6788954709       14.9857735136        0.6657927400
  C        19.4052573146       26.2868486102        1.6600105801
  C        11.5885857859       12.4671996326        2.2083818680
  C         3.9070118375       26.2866527031        2.2043550954
  C        27.0946004129       12.4737486039        1.6468909415
  C        18.3366360499       27.0099854315        0.8503126497
  C        12.6607432804       13.1825954115        3.0195012116
  C         2.8374392333       27.0108386931        3.0110435719
  C        28.1649206642       13.1989794900        0.8426157827
  C        18.3758039455        0.0802592769       -0.1542545073
  C        12.6252695978       13.8782810540        4.0221139423
  C         2.8758295898        0.0803516848        4.0163359197
  C        28.1268313038       13.8904225417       -0.1638885517
  C        17.3559819214        0.6576624778       -0.7460587992
  C        13.6496765022       14.4442719175        4.6178427040
  C         1.8559227911        0.6578758530        4.6080938811
  C        29.1464087550       14.4683998530       -0.7561572823
  C        16.1578957080        0.5796859896       -0.2661450046
  C        14.8453096010       14.3658669860        4.1339269316
  C         0.6574708602        0.5785799295        4.1286905866