 DBCSR| CPU Multiplication driver                                           XSMM (U)
 DBCSR| Multrec recursion limit                                              512 (U)
 DBCSR| Multiplication stack size                                           1000 (D)
 DBCSR| Maximum elements for images                                    UNLIMITED (U)
 DBCSR| Multiplicative factor virtual images                                   1 (U)
 DBCSR| Use multiplication densification                                       T (D)
 DBCSR| Multiplication size stacks                                             3 (U)
 DBCSR| Use memory pool for CPU allocation                                     F (U)
 DBCSR| Number of 3D layers                                               SINGLE (U)
 DBCSR| Use MPI memory allocation                                              F (U)
 DBCSR| Use RMA algorithm                                                      F (U)
 DBCSR| Use Communication thread                                               T (U)
 DBCSR| Communication thread load                                             83 (D)
 DBCSR| MPI: My process id                                                     0
 DBCSR| MPI: Number of processes                                             512
 DBCSR| OMP: Current number of threads                                         2
 DBCSR| OMP: Max number of threads                                             2
 DBCSR| Split modifier for TAS multiplication algorithm                  1.0E+00 (U)


  **** **** ******  **  PROGRAM STARTED AT               2024-03-18 09:28:04.550
 ***** ** ***  *** **   PROGRAM STARTED ON                           nesh-srp188
 **    ****   ******    PROGRAM STARTED BY                              suphc355
 ***** **    ** ** **   PROGRAM PROCESS ID                               3944453
  **** **  *******  **  PROGRAM STARTED IN /gxfs_work/cau/suphc355/MOFs/CAU7_TAB
                                           A/geo_opt/HYB

 CP2K| version string:                 CP2K version 2024.1 (Development Version)
 CP2K| source code revision number:                                  git:b6f9133
 CP2K| cp2kflags: omp libint fftw3 libxc libgrpp parallel mpi_f08 scalapack cosm
 CP2K|            a xsmm spglib mkl
 CP2K| is freely available from                            https://www.cp2k.org/
 CP2K| Program compiled at                          Fr 26. Jan 09:14:30 CET 2024
 CP2K| Program compiled on                                           nesh-login3
 CP2K| Program compiled for                                                local
 CP2K| Data directory path            /gxfs_home/cau/suphc355/software/cp2k/data
 CP2K| Input file name                                               opt_hyb.inp
 
 GLOBAL| Force Environment number                                              1
 GLOBAL| Basis set file name                                        BASIS_MOLOPT
 GLOBAL| Potential file name                                  GTH_SOC_POTENTIALS
 GLOBAL| MM Potential file name                                     MM_POTENTIAL
 GLOBAL| Coordinate file name                                        restart.xyz
 GLOBAL| Method name                                                        CP2K
 GLOBAL| Project name                                                  CAU7_TABA
 GLOBAL| Run type                                                        GEO_OPT
 GLOBAL| FFT library                                                       FFTW3
 GLOBAL| Diagonalization library                                       ScaLAPACK
 GLOBAL| DGEMM library                                                      BLAS
 GLOBAL| Orthonormality check for eigenvectors                          DISABLED
 GLOBAL| Matrix multiplication library                                     COSMA
 GLOBAL| All-to-all communication in single precision                          F
 GLOBAL| FFTs using library dependent lengths                                  F
 GLOBAL| Grid backend                                                       AUTO
 GLOBAL| Global print level                                               MEDIUM
 GLOBAL| MPI I/O enabled                                                       T
 GLOBAL| Total number of message passing processes                           512
 GLOBAL| Number of threads for this process                                    2
 GLOBAL| This output is from process                                           0
 GLOBAL| Stack size for threads created by OpenMP (OMP_STACKSIZE)        default
 GLOBAL| CPU model name                              Intel(R) Xeon(R) Gold 6426Y
 GLOBAL| CPUID                                                              1003

 MEMORY| system memory details [Kb]
 MEMORY|                        rank 0           min           max       average
 MEMORY| MemTotal            263786136     263786136     263788448     263786280
 MEMORY| MemFree             244551452     243361108     244905352     244301794
 MEMORY| Buffers                798860        789500       1279068        979040
 MEMORY| Cached                 765132        671632       1335992        917440
 MEMORY| Slab                   714672        620056        950324        781855
 MEMORY| SReclaimable           165328        142492        304932        210997
 MEMORY| MemLikelyFree       246280772     246280772     246556688     246409272


 *** Fundamental physical constants (SI units) ***

 *** Literature: B. J. Mohr and B. N. Taylor,
 ***             CODATA recommended values of the fundamental physical
 ***             constants: 2006, Web Version 5.1
 ***             http://physics.nist.gov/constants

 Speed of light in vacuum [m/s]                             2.99792458000000E+08
 Magnetic constant or permeability of vacuum [N/A**2]       1.25663706143592E-06
 Electric constant or permittivity of vacuum [F/m]          8.85418781762039E-12
 Planck constant (h) [J*s]                                  6.62606896000000E-34
 Planck constant (h-bar) [J*s]                              1.05457162825177E-34
 Elementary charge [C]                                      1.60217648700000E-19
 Electron mass [kg]                                         9.10938215000000E-31
 Electron g factor [ ]                                     -2.00231930436220E+00
 Proton mass [kg]                                           1.67262163700000E-27
 Fine-structure constant                                    7.29735253760000E-03
 Rydberg constant [1/m]                                     1.09737315685270E+07
 Avogadro constant [1/mol]                                  6.02214179000000E+23
 Boltzmann constant [J/K]                                   1.38065040000000E-23
 Atomic mass unit [kg]                                      1.66053878200000E-27
 Bohr radius [m]                                            5.29177208590000E-11

 *** Conversion factors ***

 [u] -> [a.u.]                                              1.82288848426455E+03
 [Angstrom] -> [Bohr] = [a.u.]                              1.88972613288564E+00
 [a.u.] = [Bohr] -> [Angstrom]                              5.29177208590000E-01
 [a.u.] -> [s]                                              2.41888432650478E-17
 [a.u.] -> [fs]                                             2.41888432650478E-02
 [a.u.] -> [J]                                              4.35974393937059E-18
 [a.u.] -> [N]                                              8.23872205491840E-08
 [a.u.] -> [K]                                              3.15774647902944E+05
 [a.u.] -> [kJ/mol]                                         2.62549961709828E+03
 [a.u.] -> [kcal/mol]                                       6.27509468713739E+02
 [a.u.] -> [Pa]                                             2.94210107994716E+13
 [a.u.] -> [bar]                                            2.94210107994716E+08
 [a.u.] -> [atm]                                            2.90362800883016E+08
 [a.u.] -> [eV]                                             2.72113838565563E+01
 [a.u.] -> [Hz]                                             6.57968392072181E+15
 [a.u.] -> [1/cm] (wave numbers)                            2.19474631370540E+05
 [a.u./Bohr**2] -> [1/cm]                                   5.14048714338585E+03
 

 CELL_TOP| Volume [angstrom^3]:                                      3351.133038
 CELL_TOP| Vector a [angstrom    31.001     0.000     0.000   |a| =    31.000600
 CELL_TOP| Vector b [angstrom     0.000    27.623     0.000   |b| =    27.623200
 CELL_TOP| Vector c [angstrom     0.000     0.000     3.913   |c| =     3.913340
 CELL_TOP| Angle (b,c), alpha [degree]:                                90.000000
 CELL_TOP| Angle (a,c), beta  [degree]:                                90.000000
 CELL_TOP| Angle (a,b), gamma [degree]:                                90.000000
 CELL_TOP| Numerically orthorhombic:                                         YES
 CELL_TOP| Periodicity                                                       XYZ

 CELL| Volume [angstrom^3]:                                          3351.133038
 CELL| Vector a [angstrom]:      31.001     0.000     0.000   |a| =    31.000600
 CELL| Vector b [angstrom]:       0.000    27.623     0.000   |b| =    27.623200
 CELL| Vector c [angstrom]:       0.000     0.000     3.913   |c| =     3.913340
 CELL| Angle (b,c), alpha [degree]:                                    90.000000
 CELL| Angle (a,c), beta  [degree]:                                    90.000000
 CELL| Angle (a,b), gamma [degree]:                                    90.000000
 CELL| Numerically orthorhombic:                                             YES
 CELL| Periodicity                                                           XYZ

 CELL_REF| Volume [angstrom^3]:                                      3351.133038
 CELL_REF| Vector a [angstrom    31.001     0.000     0.000   |a| =    31.000600
 CELL_REF| Vector b [angstrom     0.000    27.623     0.000   |b| =    27.623200
 CELL_REF| Vector c [angstrom     0.000     0.000     3.913   |c| =     3.913340
 CELL_REF| Angle (b,c), alpha [degree]:                                90.000000
 CELL_REF| Angle (a,c), beta  [degree]:                                90.000000
 CELL_REF| Angle (a,b), gamma [degree]:                                90.000000
 CELL_REF| Numerically orthorhombic:                                         YES
 CELL_REF| Periodicity                                                       XYZ

 *******************************************************************************
 *******************************************************************************
 **                                                                           **
 **     #####                         ##              ##                      **
 **    ##   ##            ##          ##              ##                      **
 **   ##     ##                       ##            ######                    **
 **   ##     ##  ##   ##  ##   #####  ##  ##   ####   ##    #####    #####    **
 **   ##     ##  ##   ##  ##  ##      ## ##   ##      ##   ##   ##  ##   ##   **
 **   ##  ## ##  ##   ##  ##  ##      ####     ###    ##   ######   ######    **
 **    ##  ###   ##   ##  ##  ##      ## ##      ##   ##   ##       ##        **
 **     #######   #####   ##   #####  ##  ##  ####    ##    #####   ##        **
 **           ##                                                    ##        **
 **                                                                           **
 **                                                ... make the atoms dance   **
 **                                                                           **
 **            Copyright (C) by CP2K developers group (2000-2024)             **
 **                      J. Chem. Phys. 152, 194103 (2020)                    **
 **                                                                           **
 *******************************************************************************

 DFT| Spin restricted Kohn-Sham (RKS) calculation                            RKS
 DFT| Multiplicity                                                             1
 DFT| Number of spin states                                                    1
 DFT| Charge                                                                   0
 DFT| Self-interaction correction (SIC)                                       NO
 DFT| Cutoffs: density                                              1.000000E-10
 DFT|          gradient                                             1.000000E-10
 DFT|          tau                                                  1.000000E-10
 DFT|          cutoff_smoothing_range                               0.000000E+00
 DFT| XC density smoothing                                                  NONE
 DFT| XC derivatives                                                          PW

 FUNCTIONAL| PBE:
 FUNCTIONAL| J.P.Perdew, K.Burke, M.Ernzerhof, Phys. Rev. Letter, vol. 77, n 18,
 FUNCTIONAL|  pp. 3865-3868, (1996)sx=0.750sc=1.000{spin unpolarized}           

 vdW POTENTIAL|                                                   Pair Potential
 vdW POTENTIAL|          DFT-D3 (Version 3.1)
 vdW POTENTIAL|          Potential Form: S. Grimme et al, JCP 132: 154104 (2010)
 vdW POTENTIAL|          Zero Damping
 vdW POTENTIAL|          Cutoff Radius [Bohr]:                             30.24
 vdW POTENTIAL|          s6 Scaling Factor:                               1.0000
 vdW POTENTIAL|          sr6 Scaling Factor:                              1.2170
 vdW POTENTIAL|          s8 Scaling Factor:                               0.7220
 vdW POTENTIAL|          Cutoff for CN calculation:                   0.1000E-05

 QS| Method:                                                                 GPW
 QS| Density plane wave grid type                        NON-SPHERICAL FULLSPACE
 QS| Number of grid levels:                                                    5
 QS| Density cutoff [a.u.]:                                                400.0
 QS| Multi grid cutoff [a.u.]: 1) grid level                               400.0
 QS|                           2) grid level                               133.3
 QS|                           3) grid level                                44.4
 QS|                           4) grid level                                14.8
 QS|                           5) grid level                                 4.9
 QS| Grid level progression factor:                                          3.0
 QS| Relative density cutoff [a.u.]:                                        40.0
 QS| Interaction thresholds: eps_pgf_orb:                                1.0E-30
 QS|                         eps_filter_matrix:                          0.0E+00
 QS|                         eps_core_charge:                            1.0E-17
 QS|                         eps_rho_gspace:                             1.0E-15
 QS|                         eps_rho_rspace:                             1.0E-15
 QS|                         eps_gvg_rspace:                             3.2E-08
 QS|                         eps_ppl:                                    1.0E-02
 QS|                         eps_ppnl:                                   3.2E-10

 ADMM| Specific ADMM type specified                                         NONE
 ADMM| Density matrix purification method                                   NONE
 ADMM| Orbital projection on ADMM basis
 ADMM| eps_filter                                                0.000000000    
 ADMM| Exchange functional in correction term                               PBEX



 ATOMIC KIND INFORMATION

  1. Atomic kind: Bi                                    Number of atoms:       4

     Auxiliary Fit Basis Set                                         admm-tzp-q5

       Number of orbital shell sets:                                           7
       Number of orbital shells:                                               7
       Number of primitive Cartesian functions:                                8
       Number of Cartesian basis functions:                                   18
       Number of spherical basis functions:                                   17
       Norm type:                                                              2

       Normalised Cartesian orbitals:

                        Set   Shell   Orbital            Exponent    Coefficient

                          1       1    1s                1.609761       1.018547

                          2       1    1s                1.446095       0.939848

                          3       1    1s                0.171336       0.189800

                          4       1    2px               4.497516       0.079042
                                                         0.861898      -1.188354
                          4       1    2py               4.497516       0.079042
                                                         0.861898      -1.188354
                          4       1    2pz               4.497516       0.079042
                                                         0.861898      -1.188354

                          5       1    2px               0.289709       0.302965
                          5       1    2py               0.289709       0.302965
                          5       1    2pz               0.289709       0.302965

                          6       1    2px               0.097317       0.077477
                          6       1    2py               0.097317       0.077477
                          6       1    2pz               0.097317       0.077477

                          7       1    2dx2              0.084863       0.021962
                          7       1    2dxy              0.084863       0.038039
                          7       1    2dxz              0.084863       0.038039
                          7       1    2dy2              0.084863       0.021962
                          7       1    2dyz              0.084863       0.038039
                          7       1    2dz2              0.084863       0.021962

     Orbital Basis Set                                    TZVP-MOLOPT-GGA-GTH-q5

       Number of orbital shell sets:                                           1
       Number of orbital shells:                                               7
       Number of primitive Cartesian functions:                                5
       Number of Cartesian basis functions:                                   18
       Number of spherical basis functions:                                   17
       Norm type:                                                              2

       Normalised Cartesian orbitals:

                        Set   Shell   Orbital            Exponent    Coefficient

                          1       1    2s                1.476279      -1.009126
                                                         1.112852       1.669764
                                                         0.244984      -0.649537
                                                         0.041275       0.035417
                                                         0.105231       0.163887

                          1       2    3s                1.476279       0.085849
                                                         1.112852      -0.181606
                                                         0.244984       0.041995
                                                         0.041275       0.011127
                                                         0.105231       0.100930

                          1       3    4s                1.476279      -0.367480
                                                         1.112852       0.337310
                                                         0.244984       0.102732
                                                         0.041275      -0.092668
                                                         0.105231       0.053152

                          1       4    3px               1.476279      -0.487935
                                                         1.112852       0.925872
                                                         0.244984      -0.364869
                                                         0.041275       0.015489
                                                         0.105231       0.072277
                          1       4    3py               1.476279      -0.487935
                                                         1.112852       0.925872
                                                         0.244984      -0.364869
                                                         0.041275       0.015489
                                                         0.105231       0.072277
                          1       4    3pz               1.476279      -0.487935
                                                         1.112852       0.925872
                                                         0.244984      -0.364869
                                                         0.041275       0.015489
                                                         0.105231       0.072277

                          1       5    4px               1.476279       0.147304
                                                         1.112852      -0.267547
                                                         0.244984       0.084037
                                                         0.041275       0.005523
                                                         0.105231       0.049790
                          1       5    4py               1.476279       0.147304
                                                         1.112852      -0.267547
                                                         0.244984       0.084037
                                                         0.041275       0.005523
                                                         0.105231       0.049790
                          1       5    4pz               1.476279       0.147304
                                                         1.112852      -0.267547
                                                         0.244984       0.084037
                                                         0.041275       0.005523
                                                         0.105231       0.049790

                          1       6    5px               1.476279      -0.514307
                                                         1.112852       0.703241
                                                         0.244984       0.004106
                                                         0.041275      -0.035967
                                                         0.105231       0.053021
                          1       6    5py               1.476279      -0.514307
                                                         1.112852       0.703241
                                                         0.244984       0.004106
                                                         0.041275      -0.035967
                                                         0.105231       0.053021
                          1       6    5pz               1.476279      -0.514307
                                                         1.112852       0.703241
                                                         0.244984       0.004106
                                                         0.041275      -0.035967
                                                         0.105231       0.053021

                          1       7    4dx2              1.476279      -0.401062
                                                         1.112852       0.488511
                                                         0.244984      -0.082145
                                                         0.041275      -0.001806
                                                         0.105231      -0.010944
                          1       7    4dxy              1.476279      -0.694660
                                                         1.112852       0.846125
                                                         0.244984      -0.142279
                                                         0.041275      -0.003127
                                                         0.105231      -0.018955
                          1       7    4dxz              1.476279      -0.694660
                                                         1.112852       0.846125
                                                         0.244984      -0.142279
                                                         0.041275      -0.003127
                                                         0.105231      -0.018955
                          1       7    4dy2              1.476279      -0.401062
                                                         1.112852       0.488511
                                                         0.244984      -0.082145
                                                         0.041275      -0.001806
                                                         0.105231      -0.010944
                          1       7    4dyz              1.476279      -0.694660
                                                         1.112852       0.846125
                                                         0.244984      -0.142279
                                                         0.041275      -0.003127
                                                         0.105231      -0.018955
                          1       7    4dz2              1.476279      -0.401062
                                                         1.112852       0.488511
                                                         0.244984      -0.082145
                                                         0.041275      -0.001806
                                                         0.105231      -0.010944

       Atomic covalent radius [Angstrom]:                                  1.460

       Atomic van der Waals radius [Angstrom]:                             2.070

     GTH Potential information for                                       GTH-PBE

       Description:                       Goedecker-Teter-Hutter pseudopotential
                                           Goedecker et al., PRB 54, 1703 (1996)
                                          Hartwigsen et al., PRB 58, 3641 (1998)
                                                      Krack, TCA 114, 145 (2005)

       Gaussian exponent of the core charge distribution:               1.366027
       Electronic configuration (s p d ...):                               2   3

       Parameters of the local part of the GTH pseudopotential:

                          rloc        C1          C2          C3          C4
                        0.605000    7.945757

       Parameters of the non-local part of the GTH (SOC) pseudopotential:

                   l      r(l)      h(i,j,l)
                                    k(i,j,l)
                   0    0.582232    0.643735    2.247616   -1.440601
                                    2.247616   -5.244797    3.719615
                                   -1.440601    3.719615   -2.952353
                   1    0.766394    0.212533    0.379834
                                    0.379834   -0.449426
                                    0.339106   -0.021086
                                   -0.021086    0.024949
                   2    0.965655    0.347298
                                    0.020357

  2. Atomic kind: O                                     Number of atoms:      24

     Auxiliary Fit Basis Set                                         admm-tzp-q6

       Number of orbital shell sets:                                           7
       Number of orbital shells:                                               7
       Number of primitive Cartesian functions:                                9
       Number of Cartesian basis functions:                                   18
       Number of spherical basis functions:                                   17
       Norm type:                                                              2

       Normalised Cartesian orbitals:

                        Set   Shell   Orbital            Exponent    Coefficient

                          1       1    1s                8.406831      -1.124375
                                                         0.967239       0.772464

                          2       1    1s                0.374656       0.341299

                          3       1    1s                0.159520       0.179896

                          4       1    1px               8.299922      -7.331094
                                                         2.387648       5.036579
                          4       1    1py               8.299922      -7.331094
                                                         2.387648       5.036579
                          4       1    1pz               8.299922      -7.331094
                                                         2.387648       5.036579

                          5       1    1px               0.720639       0.946428
                          5       1    1py               0.720639       0.946428
                          5       1    1pz               0.720639       0.946428

                          6       1    1px               0.198275       0.188592
                          6       1    1py               0.198275       0.188592
                          6       1    1pz               0.198275       0.188592

                          7       1    1dx2              1.185000       2.215218
                          7       1    1dxy              1.185000       3.836871
                          7       1    1dxz              1.185000       3.836871
                          7       1    1dy2              1.185000       2.215218
                          7       1    1dyz              1.185000       3.836871
                          7       1    1dz2              1.185000       2.215218

     Orbital Basis Set                                        TZVP-MOLOPT-GTH-q6

       Number of orbital shell sets:                                           1
       Number of orbital shells:                                               7
       Number of primitive Cartesian functions:                                7
       Number of Cartesian basis functions:                                   18
       Number of spherical basis functions:                                   17
       Norm type:                                                              2

       Normalised Cartesian orbitals:

                        Set   Shell   Orbital            Exponent    Coefficient

                          1       1    2s               12.015955      -0.284499
                                                         5.108150      -0.322498
                                                         2.048398       0.148191
                                                         0.832382       0.295475
                                                         0.352316       0.150829
                                                         0.142977       0.015788
                                                         0.046761      -0.000019

                          1       2    3s               12.015955       0.725622
                                                         5.108150       0.644384
                                                         2.048398      -0.157350
                                                         0.832382      -0.853528
                                                         0.352316       0.146068
                                                         0.142977       0.153978
                                                         0.046761       0.000658

                          1       3    4s               12.015955       1.228006
                                                         5.108150       1.271453
                                                         2.048398      -0.537390
                                                         0.832382      -1.759282
                                                         0.352316       1.533697
                                                         0.142977      -0.562509
                                                         0.046761       0.081954

                          1       4    3px              12.015955       1.192141
                                                         5.108150       1.354170
                                                         2.048398       0.897267
                                                         0.832382       0.408839
                                                         0.352316       0.116648
                                                         0.142977       0.022184
                                                         0.046761       0.000308
                          1       4    3py              12.015955       1.192141
                                                         5.108150       1.354170
                                                         2.048398       0.897267
                                                         0.832382       0.408839
                                                         0.352316       0.116648
                                                         0.142977       0.022184
                                                         0.046761       0.000308
                          1       4    3pz              12.015955       1.192141
                                                         5.108150       1.354170
                                                         2.048398       0.897267
                                                         0.832382       0.408839
                                                         0.352316       0.116648
                                                         0.142977       0.022184
                                                         0.046761       0.000308

                          1       5    4px              12.015955      -1.062381
                                                         5.108150      -1.285791
                                                         2.048398      -0.727000
                                                         0.832382      -0.522764
                                                         0.352316       0.182681
                                                         0.142977       0.087560
                                                         0.046761       0.000981
                          1       5    4py              12.015955      -1.062381
                                                         5.108150      -1.285791
                                                         2.048398      -0.727000
                                                         0.832382      -0.522764
                                                         0.352316       0.182681
                                                         0.142977       0.087560
                                                         0.046761       0.000981
                          1       5    4pz              12.015955      -1.062381
                                                         5.108150      -1.285791
                                                         2.048398      -0.727000
                                                         0.832382      -0.522764
                                                         0.352316       0.182681
                                                         0.142977       0.087560
                                                         0.046761       0.000981

                          1       6    5px              12.015955      -0.063722
                                                         5.108150       0.363638
                                                         2.048398       0.015152
                                                         0.832382      -0.083580
                                                         0.352316       0.692078
                                                         0.142977      -0.184312
                                                         0.046761       0.007664
                          1       6    5py              12.015955      -0.063722
                                                         5.108150       0.363638
                                                         2.048398       0.015152
                                                         0.832382      -0.083580
                                                         0.352316       0.692078
                                                         0.142977      -0.184312
                                                         0.046761       0.007664
                          1       6    5pz              12.015955      -0.063722
                                                         5.108150       0.363638
                                                         2.048398       0.015152
                                                         0.832382      -0.083580
                                                         0.352316       0.692078
                                                         0.142977      -0.184312
                                                         0.046761       0.007664

                          1       7    4dx2             12.015955       1.125955
                                                         5.108150       1.160468
                                                         2.048398       0.999335
                                                         0.832382       0.756334
                                                         0.352316       0.048604
                                                         0.142977       0.010378
                                                         0.046761      -0.000027
                          1       7    4dxy             12.015955       1.950212
                                                         5.108150       2.009990
                                                         2.048398       1.730899
                                                         0.832382       1.310009
                                                         0.352316       0.084185
                                                         0.142977       0.017974
                                                         0.046761      -0.000046
                          1       7    4dxz             12.015955       1.950212
                                                         5.108150       2.009990
                                                         2.048398       1.730899
                                                         0.832382       1.310009
                                                         0.352316       0.084185
                                                         0.142977       0.017974
                                                         0.046761      -0.000046
                          1       7    4dy2             12.015955       1.125955
                                                         5.108150       1.160468
                                                         2.048398       0.999335
                                                         0.832382       0.756334
                                                         0.352316       0.048604
                                                         0.142977       0.010378
                                                         0.046761      -0.000027
                          1       7    4dyz             12.015955       1.950212
                                                         5.108150       2.009990
                                                         2.048398       1.730899
                                                         0.832382       1.310009
                                                         0.352316       0.084185
                                                         0.142977       0.017974
                                                         0.046761      -0.000046
                          1       7    4dz2             12.015955       1.125955
                                                         5.108150       1.160468
                                                         2.048398       0.999335
                                                         0.832382       0.756334
                                                         0.352316       0.048604
                                                         0.142977       0.010378
                                                         0.046761      -0.000027

       Atomic covalent radius [Angstrom]:                                  0.730

       Atomic van der Waals radius [Angstrom]:                             1.520

     GTH Potential information for                                       GTH-PBE

       Description:                       Goedecker-Teter-Hutter pseudopotential
                                           Goedecker et al., PRB 54, 1703 (1996)
                                          Hartwigsen et al., PRB 58, 3641 (1998)
                                                      Krack, TCA 114, 145 (2005)

       Gaussian exponent of the core charge distribution:               8.360253
       Electronic configuration (s p d ...):                               2   4

       Parameters of the local part of the GTH pseudopotential:

                          rloc        C1          C2          C3          C4
                        0.244554  -16.667215    2.487311

       Parameters of the non-local part of the GTH (SOC) pseudopotential:

                   l      r(l)      h(i,j,l)
                                    k(i,j,l)
                   0    0.220956   18.337458
                   1    0.211332    0.000000
                                    0.007559

  3. Atomic kind: N                                     Number of atoms:      12

     Auxiliary Fit Basis Set                                         admm-tzp-q5

       Number of orbital shell sets:                                           7
       Number of orbital shells:                                               7
       Number of primitive Cartesian functions:                                9
       Number of Cartesian basis functions:                                   18
       Number of spherical basis functions:                                   17
       Norm type:                                                              2

       Normalised Cartesian orbitals:

                        Set   Shell   Orbital            Exponent    Coefficient

                          1       1    1s                6.213162      -0.926209
                                                         0.716616       0.618274

                          2       1    1s                0.318713       0.302315

                          3       1    1s                0.156356       0.177213

                          4       1    1px               6.434402      -5.795363
                                                         1.908664       3.868591
                          4       1    1py               6.434402      -5.795363
                                                         1.908664       3.868591
                          4       1    1pz               6.434402      -5.795363
                                                         1.908664       3.868591

                          5       1    1px               0.596798       0.747695
                          5       1    1py               0.596798       0.747695
                          5       1    1pz               0.596798       0.747695

                          6       1    1px               0.168824       0.154253
                          6       1    1py               0.168824       0.154253
                          6       1    1pz               0.168824       0.154253

                          7       1    1dx2              0.817000       1.155575
                          7       1    1dxy              0.817000       2.001514
                          7       1    1dxz              0.817000       2.001514
                          7       1    1dy2              0.817000       1.155575
                          7       1    1dyz              0.817000       2.001514
                          7       1    1dz2              0.817000       1.155575

     Orbital Basis Set                                        TZVP-MOLOPT-GTH-q5

       Number of orbital shell sets:                                           1
       Number of orbital shells:                                               7
       Number of primitive Cartesian functions:                                7
       Number of Cartesian basis functions:                                   18
       Number of spherical basis functions:                                   17
       Norm type:                                                              2

       Normalised Cartesian orbitals:

                        Set   Shell   Orbital            Exponent    Coefficient

                          1       1    2s                9.042730      -0.237404
                                                         3.882225      -0.265910
                                                         1.512880       0.102064
                                                         0.586631       0.295369
                                                         0.222851       0.088647
                                                         0.084583       0.003860
                                                         0.039194       0.000722

                          1       2    3s                9.042730       0.259152
                                                         3.882225       0.251432
                                                         1.512880      -0.043896
                                                         0.586631      -0.328079
                                                         0.222851       0.175857
                                                         0.084583       0.069169
                                                         0.039194       0.004207

                          1       3    4s                9.042730       0.330627
                                                         3.882225       0.738242
                                                         1.512880      -0.570149
                                                         0.586631       0.474918
                                                         0.222851       0.192885
                                                         0.084583      -0.214824
                                                         0.039194       0.031577

                          1       4    3px               9.042730       0.822162
                                                         3.882225       0.990771
                                                         1.512880       0.665657
                                                         0.586631       0.321705
                                                         0.222851       0.063706
                                                         0.084583       0.004155
                                                         0.039194      -0.000005
                          1       4    3py               9.042730       0.822162
                                                         3.882225       0.990771
                                                         1.512880       0.665657
                                                         0.586631       0.321705
                                                         0.222851       0.063706
                                                         0.084583       0.004155
                                                         0.039194      -0.000005
                          1       4    3pz               9.042730       0.822162
                                                         3.882225       0.990771
                                                         1.512880       0.665657
                                                         0.586631       0.321705
                                                         0.222851       0.063706
                                                         0.084583       0.004155
                                                         0.039194      -0.000005

                          1       5    4px               9.042730      -0.251449
                                                         3.882225      -0.215479
                                                         1.512880      -0.200519
                                                         0.586631      -0.125283
                                                         0.222851       0.136219
                                                         0.084583       0.034362
                                                         0.039194       0.000879
                          1       5    4py               9.042730      -0.251449
                                                         3.882225      -0.215479
                                                         1.512880      -0.200519
                                                         0.586631      -0.125283
                                                         0.222851       0.136219
                                                         0.084583       0.034362
                                                         0.039194       0.000879
                          1       5    4pz               9.042730      -0.251449
                                                         3.882225      -0.215479
                                                         1.512880      -0.200519
                                                         0.586631      -0.125283
                                                         0.222851       0.136219
                                                         0.084583       0.034362
                                                         0.039194       0.000879

                          1       6    5px               9.042730      -1.546561
                                                         3.882225       0.742834
                                                         1.512880      -1.783177
                                                         0.586631       0.969458
                                                         0.222851       0.077327
                                                         0.084583      -0.117711
                                                         0.039194       0.027593
                          1       6    5py               9.042730      -1.546561
                                                         3.882225       0.742834
                                                         1.512880      -1.783177
                                                         0.586631       0.969458
                                                         0.222851       0.077327
                                                         0.084583      -0.117711
                                                         0.039194       0.027593
                          1       6    5pz               9.042730      -1.546561
                                                         3.882225       0.742834
                                                         1.512880      -1.783177
                                                         0.586631       0.969458
                                                         0.222851       0.077327
                                                         0.084583      -0.117711
                                                         0.039194       0.027593

                          1       7    4dx2              9.042730       1.099742
                                                         3.882225       0.532064
                                                         1.512880       0.873643
                                                         0.586631       0.456348
                                                         0.222851       0.017840
                                                         0.084583      -0.000857
                                                         0.039194      -0.000086
                          1       7    4dxy              9.042730       1.904809
                                                         3.882225       0.921562
                                                         1.512880       1.513195
                                                         0.586631       0.790419
                                                         0.222851       0.030900
                                                         0.084583      -0.001484
                                                         0.039194      -0.000150
                          1       7    4dxz              9.042730       1.904809
                                                         3.882225       0.921562
                                                         1.512880       1.513195
                                                         0.586631       0.790419
                                                         0.222851       0.030900
                                                         0.084583      -0.001484
                                                         0.039194      -0.000150
                          1       7    4dy2              9.042730       1.099742
                                                         3.882225       0.532064
                                                         1.512880       0.873643
                                                         0.586631       0.456348
                                                         0.222851       0.017840
                                                         0.084583      -0.000857
                                                         0.039194      -0.000086
                          1       7    4dyz              9.042730       1.904809
                                                         3.882225       0.921562
                                                         1.512880       1.513195
                                                         0.586631       0.790419
                                                         0.222851       0.030900
                                                         0.084583      -0.001484
                                                         0.039194      -0.000150
                          1       7    4dz2              9.042730       1.099742
                                                         3.882225       0.532064
                                                         1.512880       0.873643
                                                         0.586631       0.456348
                                                         0.222851       0.017840
                                                         0.084583      -0.000857
                                                         0.039194      -0.000086

       Atomic covalent radius [Angstrom]:                                  0.750

       Atomic van der Waals radius [Angstrom]:                             1.550

     GTH Potential information for                                       GTH-PBE

       Description:                       Goedecker-Teter-Hutter pseudopotential
                                           Goedecker et al., PRB 54, 1703 (1996)
                                          Hartwigsen et al., PRB 58, 3641 (1998)
                                                      Krack, TCA 114, 145 (2005)

       Gaussian exponent of the core charge distribution:               6.208322
       Electronic configuration (s p d ...):                               2   3

       Parameters of the local part of the GTH pseudopotential:

                          rloc        C1          C2          C3          C4
                        0.283791  -12.415226    1.868096

       Parameters of the non-local part of the GTH (SOC) pseudopotential:

                   l      r(l)      h(i,j,l)
                                    k(i,j,l)
                   0    0.255405   13.630263
                   1    0.245495    0.000000
                                    0.004148

  4. Atomic kind: C                                     Number of atoms:      96

     Auxiliary Fit Basis Set                                         admm-tzp-q4

       Number of orbital shell sets:                                           7
       Number of orbital shells:                                               7
       Number of primitive Cartesian functions:                                9
       Number of Cartesian basis functions:                                   18
       Number of spherical basis functions:                                   17
       Norm type:                                                              2

       Normalised Cartesian orbitals:

                        Set   Shell   Orbital            Exponent    Coefficient

                          1       1    1s                8.477503       0.595236
                                                         3.577003       1.575378

                          2       1    1s                0.495726       0.421057

                          3       1    1s                0.159172       0.179601

                          4       1    1px               4.986355       0.952283
                                                         1.664384       2.520356
                          4       1    1py               4.986355       0.952283
                                                         1.664384       2.520356
                          4       1    1pz               4.986355       0.952283
                                                         1.664384       2.520356

                          5       1    1px               0.555716       0.683921
                          5       1    1py               0.555716       0.683921
                          5       1    1pz               0.555716       0.683921

                          6       1    1px               0.158157       0.142168
                          6       1    1py               0.158157       0.142168
                          6       1    1pz               0.158157       0.142168

                          7       1    1dx2              0.550000       0.578155
                          7       1    1dxy              0.550000       1.001394
                          7       1    1dxz              0.550000       1.001394
                          7       1    1dy2              0.550000       0.578155
                          7       1    1dyz              0.550000       1.001394
                          7       1    1dz2              0.550000       0.578155

     Orbital Basis Set                                        TZVP-MOLOPT-GTH-q4

       Number of orbital shell sets:                                           1
       Number of orbital shells:                                               7
       Number of primitive Cartesian functions:                                7
       Number of Cartesian basis functions:                                   18
       Number of spherical basis functions:                                   17
       Norm type:                                                              2

       Normalised Cartesian orbitals:

                        Set   Shell   Orbital            Exponent    Coefficient

                          1       1    2s                6.132625      -0.263661
                                                         2.625196      -0.231112
                                                         1.045457       0.042712
                                                         0.478316       0.306085
                                                         0.178617       0.065483
                                                         0.075145       0.000568
                                                         0.030287       0.000417

                          1       2    3s                6.132625       0.131937
                                                         2.625196       0.414269
                                                         1.045457      -0.593590
                                                         0.478316       0.644922
                                                         0.178617       0.069203
                                                         0.075145      -0.145101
                                                         0.030287       0.008247

                          1       3    4s                6.132625      -1.009391
                                                         2.625196      -0.608763
                                                         1.045457      -0.320627
                                                         0.478316       1.417678
                                                         0.178617      -0.917862
                                                         0.075145       0.286664
                                                         0.030287      -0.031483

                          1       4    3px               6.132625       0.562677
                                                         2.625196       0.633910
                                                         1.045457       0.379157
                                                         0.478316       0.235193
                                                         0.178617       0.052379
                                                         0.075145       0.003677
                                                         0.030287       0.000105
                          1       4    3py               6.132625       0.562677
                                                         2.625196       0.633910
                                                         1.045457       0.379157
                                                         0.478316       0.235193
                                                         0.178617       0.052379
                                                         0.075145       0.003677
                                                         0.030287       0.000105
                          1       4    3pz               6.132625       0.562677
                                                         2.625196       0.633910
                                                         1.045457       0.379157
                                                         0.478316       0.235193
                                                         0.178617       0.052379
                                                         0.075145       0.003677
                                                         0.030287       0.000105

                          1       5    4px               6.132625      -0.472364
                                                         2.625196      -0.221326
                                                         1.045457      -0.481781
                                                         0.478316       0.135466
                                                         0.178617       0.072281
                                                         0.075145       0.024920
                                                         0.030287       0.002706
                          1       5    4py               6.132625      -0.472364
                                                         2.625196      -0.221326
                                                         1.045457      -0.481781
                                                         0.478316       0.135466
                                                         0.178617       0.072281
                                                         0.075145       0.024920
                                                         0.030287       0.002706
                          1       5    4pz               6.132625      -0.472364
                                                         2.625196      -0.221326
                                                         1.045457      -0.481781
                                                         0.478316       0.135466
                                                         0.178617       0.072281
                                                         0.075145       0.024920
                                                         0.030287       0.002706

                          1       6    5px               6.132625      -0.321125
                                                         2.625196      -0.513960
                                                         1.045457      -0.659092
                                                         0.478316       1.236398
                                                         0.178617      -0.279443
                                                         0.075145       0.042466
                                                         0.030287      -0.008547
                          1       6    5py               6.132625      -0.321125
                                                         2.625196      -0.513960
                                                         1.045457      -0.659092
                                                         0.478316       1.236398
                                                         0.178617      -0.279443
                                                         0.075145       0.042466
                                                         0.030287      -0.008547
                          1       6    5pz               6.132625      -0.321125
                                                         2.625196      -0.513960
                                                         1.045457      -0.659092
                                                         0.478316       1.236398
                                                         0.178617      -0.279443
                                                         0.075145       0.042466
                                                         0.030287      -0.008547

                          1       7    4dx2              6.132625       0.874783
                                                         2.625196       0.375772
                                                         1.045457       0.653959
                                                         0.478316       0.191007
                                                         0.178617       0.018656
                                                         0.075145       0.003649
                                                         0.030287      -0.000011
                          1       7    4dxy              6.132625       1.515169
                                                         2.625196       0.650856
                                                         1.045457       1.132690
                                                         0.478316       0.330834
                                                         0.178617       0.032314
                                                         0.075145       0.006321
                                                         0.030287      -0.000019
                          1       7    4dxz              6.132625       1.515169
                                                         2.625196       0.650856
                                                         1.045457       1.132690
                                                         0.478316       0.330834
                                                         0.178617       0.032314
                                                         0.075145       0.006321
                                                         0.030287      -0.000019
                          1       7    4dy2              6.132625       0.874783
                                                         2.625196       0.375772
                                                         1.045457       0.653959
                                                         0.478316       0.191007
                                                         0.178617       0.018656
                                                         0.075145       0.003649
                                                         0.030287      -0.000011
                          1       7    4dyz              6.132625       1.515169
                                                         2.625196       0.650856
                                                         1.045457       1.132690
                                                         0.478316       0.330834
                                                         0.178617       0.032314
                                                         0.075145       0.006321
                                                         0.030287      -0.000019
                          1       7    4dz2              6.132625       0.874783
                                                         2.625196       0.375772
                                                         1.045457       0.653959
                                                         0.478316       0.191007
                                                         0.178617       0.018656
                                                         0.075145       0.003649
                                                         0.030287      -0.000011

       Atomic covalent radius [Angstrom]:                                  0.770

       Atomic van der Waals radius [Angstrom]:                             1.700

     GTH Potential information for                                       GTH-PBE

       Description:                       Goedecker-Teter-Hutter pseudopotential
                                           Goedecker et al., PRB 54, 1703 (1996)
                                          Hartwigsen et al., PRB 58, 3641 (1998)
                                                      Krack, TCA 114, 145 (2005)

       Gaussian exponent of the core charge distribution:               4.364419
       Electronic configuration (s p d ...):                               2   2

       Parameters of the local part of the GTH pseudopotential:

                          rloc        C1          C2          C3          C4
                        0.338471   -8.803674    1.339211

       Parameters of the non-local part of the GTH (SOC) pseudopotential:

                   l      r(l)      h(i,j,l)
                                    k(i,j,l)
                   0    0.302576    9.622487
                   1    0.291507    0.000000
                                    0.002073

  5. Atomic kind: H                                     Number of atoms:      48

     Auxiliary Fit Basis Set                                         admm-tzp-q1

       Number of orbital shell sets:                                           4
       Number of orbital shells:                                               4
       Number of primitive Cartesian functions:                                5
       Number of Cartesian basis functions:                                    6
       Number of spherical basis functions:                                    6
       Norm type:                                                              2

       Normalised Cartesian orbitals:

                        Set   Shell   Orbital            Exponent    Coefficient

                          1       1    1s                9.284181       0.722156
                                                         2.188955       1.100335

                          2       1    1s                0.569305       0.467109

                          3       1    1s                0.136639       0.160173

                          4       1    1px               0.727000       0.956881
                          4       1    1py               0.727000       0.956881
                          4       1    1pz               0.727000       0.956881

     Orbital Basis Set                                        TZVP-MOLOPT-GTH-q1

       Number of orbital shell sets:                                           1
       Number of orbital shells:                                               4
       Number of primitive Cartesian functions:                                7
       Number of Cartesian basis functions:                                    6
       Number of spherical basis functions:                                    6
       Norm type:                                                              2

       Normalised Cartesian orbitals:

                        Set   Shell   Orbital            Exponent    Coefficient

                          1       1    2s               11.478000       0.129129
                                                         3.700759       0.177012
                                                         1.446884       0.141285
                                                         0.716815       0.245670
                                                         0.247919       0.094768
                                                         0.066918       0.004062
                                                         0.021708      -0.000053

                          1       2    3s               11.478000      -0.079256
                                                         3.700759      -0.152992
                                                         1.446884       0.015066
                                                         0.716815      -0.331234
                                                         0.247919       0.210690
                                                         0.066918       0.058630
                                                         0.021708      -0.003429

                          1       3    4s               11.478000      -0.246880
                                                         3.700759       0.023016
                                                         1.446884      -1.109374
                                                         0.716815       1.524652
                                                         0.247919      -0.227968
                                                         0.066918      -0.037343
                                                         0.021708       0.005696

                          1       4    3px              11.478000       0.325290
                                                         3.700759       0.187466
                                                         1.446884       0.443300
                                                         0.716815       0.267738
                                                         0.247919       0.088285
                                                         0.066918       0.019092
                                                         0.021708       0.000629
                          1       4    3py              11.478000       0.325290
                                                         3.700759       0.187466
                                                         1.446884       0.443300
                                                         0.716815       0.267738
                                                         0.247919       0.088285
                                                         0.066918       0.019092
                                                         0.021708       0.000629
                          1       4    3pz              11.478000       0.325290
                                                         3.700759       0.187466
                                                         1.446884       0.443300
                                                         0.716815       0.267738
                                                         0.247919       0.088285
                                                         0.066918       0.019092
                                                         0.021708       0.000629

       Atomic covalent radius [Angstrom]:                                  0.320

       Atomic van der Waals radius [Angstrom]:                             1.090

     GTH Potential information for                                       GTH-PBE

       Description:                       Goedecker-Teter-Hutter pseudopotential
                                           Goedecker et al., PRB 54, 1703 (1996)
                                          Hartwigsen et al., PRB 58, 3641 (1998)
                                                      Krack, TCA 114, 145 (2005)

       Gaussian exponent of the core charge distribution:              12.500000
       Electronic configuration (s p d ...):                                   1

       Parameters of the local part of the GTH pseudopotential:

                          rloc        C1          C2          C3          C4
                        0.200000   -4.178900    0.724463


 MOLECULE KIND INFORMATION


 All atoms are their own molecule, skipping detailed information


 TOTAL NUMBERS AND MAXIMUM NUMBERS

  Total number of            - Atomic kinds:                                   5
                             - Atoms:                                        184
                             - Shell sets:                                   184
                             - Shells:                                      1144
                             - Primitive Cartesian functions:               1280
                             - Cartesian basis functions:                   2736
                             - Spherical basis functions:                   2600

  Maximum angular momentum of- Orbital basis functions:                        2
                             - Local part of the GTH pseudopotential:          2
                             - Non-local part of the GTH pseudopotential:      4

  AUX_FIT ADMM-Basis: 
  Total number of            - Shell sets:                                  1144
                             - Shells:                                      1144
                             - Primitive Cartesian functions:               1460
                             - Cartesian basis functions:                   2736
                             - Spherical basis functions:                   2600
                               Maximum angular momentum                        2


 MODULE QUICKSTEP: ATOMIC COORDINATES IN ANGSTROM

   Atom Kind Element         X             Y             Z       Z(eff)     Mass
      1    1 Bi   83     27.856343      2.763850      0.421948   5.0000 208.9804
      2    1 Bi   83      3.142362     16.574540      3.435758   5.0000 208.9804
[...]
 MPI messages size (bytes):
  total size                        17.655151E+12
  min size                           0.000000E+00
  max size                         123.760000E+03
  average size                      13.342076E+03
 MPI breakdown and total messages size (bytes):
             size <=      128           874832489                        0
       128 < size <=     8192           118451015             812633275904
      8192 < size <=    32768           162840048            3319843571200
     32768 < size <=   131072           167145056           13515884928000
    131072 < size <=  4194304                   0                        0
   4194304 < size <= 16777216                   0                        0
  16777216 < size                               0                        0
 -------------------------------------------------------------------------------

 *** WARNING in dbcsr_mm.F:291 :: Using a non-square number of MPI ranks ***
 *** might lead to poor performance. Used ranks: 512 Suggested: 529 1024 ***

 -------------------------------------------------------------------------------
 -                                                                             -
 -                      DBCSR MESSAGE PASSING PERFORMANCE                      -
 -                                                                             -
 -------------------------------------------------------------------------------
 ROUTINE             CALLS      AVE VOLUME [Bytes]
 MP_Bcast              145                     12.
 MP_Allreduce       226123                      8.
 MP_Alltoall        266456                 460253.
 MP_ISend          5373446                   8330.
 MP_IRecv          5361416                   8119.
 -------------------------------------------------------------------------------

 -------------------------------------------------------------------------------
 -                                                                             -
 -                                DBM STATISTICS                               -
 -                                                                             -
 -------------------------------------------------------------------------------
    M  x    N  x    K                                          COUNT     PERCENT
 -------------------------------------------------------------------------------

 -------------------------------------------------------------------------------
 -                                                                             -
 -                                GRID STATISTICS                              -
 -                                                                             -
 -------------------------------------------------------------------------------
 LP    KERNEL             BACKEND                              COUNT     PERCENT
 2     integrate ortho    CPU                              876134603       5.36%
 1     collocate ortho    CPU                              440310502       2.69%
 1     integrate ortho    CPU                              430976331       2.64%
 0     collocate ortho    CPU                              272389165       1.67%
 0     integrate ortho    CPU                              257248380       1.57%
 5     integrate ortho    CPU                              194613473       1.19%
 0     collocate general  CPU                               20160512       0.12%
 0     integrate general  CPU                               10080256       0.06%
 1     integrate general  CPU                                9986048       0.06%
 4     collocate ortho    CPU                             3503120765      21.44%
 4     integrate ortho    CPU                             3475188381      21.27%
 3     collocate ortho    CPU                             3033199863      18.56%
 3     integrate ortho    CPU                             2913265571      17.83%
 2     collocate ortho    CPU                              902110727       5.52%
 -------------------------------------------------------------------------------

 MEMORY| Estimated peak process memory [MiB]                                3040

 -------------------------------------------------------------------------------
 ----                             MULTIGRID INFO                            ----
 -------------------------------------------------------------------------------
 count for grid        1:      288999847          cutoff [a.u.]          400.00
 count for grid        2:      276183060          cutoff [a.u.]          133.33
 count for grid        3:      456569018          cutoff [a.u.]           44.44
 count for grid        4:      455034417          cutoff [a.u.]           14.81
 count for grid        5:      581488687          cutoff [a.u.]            4.94
 total gridlevel count  :     2058275029

 -------------------------------------------------------------------------------
 -                                                                             -
 -                         MESSAGE PASSING PERFORMANCE                         -
 -                                                                             -
 -------------------------------------------------------------------------------

 ROUTINE             CALLS      AVE VOLUME [Bytes]
 MP_Group                5
 MP_Bcast            50780                 195413.
 MP_Allreduce       151536                    342.
 MP_Sync             72144
 MP_Alltoall         81941                1269267.
 MP_SendRecv       6065059                   4744.
 MP_ISendRecv      8067668                  23203.
 MP_Wait           8593756
 MP_comm_split         510
 MP_ISend          3101662                  31430.
 MP_IRecv          3101740                  31429.
 -------------------------------------------------------------------------------


 -------------------------------------------------------------------------------
 -                                                                             -
 -                           R E F E R E N C E S                               -
 -                                                                             -
 -------------------------------------------------------------------------------
 
 CP2K version 2024.1 (Development Version), the CP2K developers group (2024).
 CP2K is freely available from https://www.cp2k.org/ .

 Kuehne,Thomas D.; Iannuzzi,Marcella; Del Ben,Mauro;
 Rybkin,Vladimir V.; Seewald,Patrick; Stein,Frederick; Laino,Teodoro;
 Khaliullin,Rustam Z.; Schuett,Ole; Schiffmann,Florian; Golze,Dorothea;
 Wilhelm,Jan; Chulkov,Sergey; Bani-Hashemian,Mohammad Hossein;
 Weber,Valery; Borstnik,Urban; Taillefumier,Mathieu;
 Jakobovits,Alice Shoshana; Lazzaro,Alfio; Pabst,Hans; Mueller,Tiziano;
 Schade,Robert; Guidon,Manuel; Andermatt,Samuel; Holmberg,Nico;
 Schenter,Gregory K.; Hehn,Anna; Bussy,Augustin; Belleflamme,Fabian;
 Tabacchi,Gloria; Gloess,Andreas; Lass,Michael; Bethune,Iain;
 Mundy,Christopher J.; Plessl,Christian; Watkins,Matt;
 VandeVondele,Joost; Krack,Matthias; Hutter,Juerg. 
 The Journal of Chemical Physics, 152 (19), (2020). 
 CP2K: An electronic structure and molecular dynamics software package -
 Quickstep: Efficient and accurate electronic structure calculations.
 https://doi.org/10.1063/5.0007045

 Goerigk, Lars; Hansen, Andreas; Bauer, Christoph; Ehrlich, Stephan;
 Najibi, Asim; Grimme, Stefan. , 19 (48), (2017). 
 A look at the density functional theory zoo with the advanced GMTKN55 database
 for general main group thermochemistry, kinetics and noncovalent interactions.
 https://doi.org/10.1039/C7CP04913G

 Schuett, Ole; Messmer, Peter; Hutter, Juerg; VandeVondele, Joost. 
 Electronic Structure Calculations on Graphics Processing Units, John
 Wiley & Sons, Ltd, 173-190 (2016). 
 GPU-Accelerated Sparse Matrix-Matrix Multiplication for
 Linear Scaling Density Functional Theory.
 https://doi.org/10.1002/9781118670712.ch8

 Heinecke, A; Henry, G; Hutchinson, M; Pabst, H. 
 Proceedings of Intl. Supercomputing Conference, 981-991 (2016). 
 LIBXSMM: Accelerating Small Matrix Multiplications
 by Runtime Code Generation.
 https://doi.org/10.1109/SC.2016.83

 Borstnik, U; VandeVondele, J; Weber, V; Hutter, J. 
 PARALLEL COMPUTING, 40 (5-6), 47-58 (2014). 
 Sparse matrix multiplication: The distributed block-compressed sparse
 row library.
 https://doi.org/10.1016/j.parco.2014.03.012

 Hutter, J; Iannuzzi, M; Schiffmann, F; VandeVondele, J. 
 WIREs Comput Mol Sci., 4 (1), 15-25 (2014). 
 CP2K: atomistic simulations of condensed matter systems.
 https://doi.org/10.1002/wcms.1159

 Grimme, S; Ehrlich, S; Goerigk, L. 
 JOURNAL OF COMPUTATIONAL CHEMISTRY, 32, 1456 (2011). 
 Effect of the damping function in dispersion corrected density functional theory.
 https://doi.org/10.1002/jcc.21759

 Guidon, M; Hutter, J; VandeVondele, J. 
 JOURNAL OF CHEMICAL THEORY AND COMPUTATION, 6 (8), 2348-2364 (2010). 
 Auxiliary Density Matrix Methods for Hartree-Fock Exchange Calculations.
 https://doi.org/10.1021/ct1002225

 Grimme, S; Antony, J; Ehrlich, S; Krieg, H. 
 JOURNAL OF CHEMICAL PHYSICS, 132 (15), 154104 (2010). 
 A consistent and accurate ab initio parametrization of density
 functional dispersion correction (DFT-D) for the 94 elements H-Pu.
 https://doi.org/10.1063/1.3382344

 Guidon, M; Hutter, J; VandeVondele, J. 
 JOURNAL OF CHEMICAL THEORY AND COMPUTATION, 5 (11), 3010-3021 (2009). 
 Robust Periodic Hartree-Fock Exchange for Large-Scale Simulations Using
 Gaussian Basis Sets.
 https://doi.org/10.1021/ct900494g

 Guidon, M; Schiffmann, F; Hutter, J; VandeVondele, J. 
 JOURNAL OF CHEMICAL PHYSICS, 128 (21), 214104 (2008). 
 Ab initio molecular dynamics using hybrid density functionals.
 https://doi.org/10.1063/1.2931945

 VandeVondele, J; Hutter, J. 
 JOURNAL OF CHEMICAL PHYSICS, 127 (11), 114105 (2007). 
 Gaussian basis sets for accurate calculations on molecular systems in
 gas and condensed phases.
 https://doi.org/10.1063/1.2770708

 Kuhne, TD; Krack, M; Mohamed, FR; Parrinello, M. 
 PHYSICAL REVIEW LETTERS, 98 (6), 066401 (2007). 
 Efficient and accurate Car-Parrinello-like approach to
 Born-Oppenheimer molecular dynamics.
 https://doi.org/10.1103/PhysRevLett.98.066401

 Krack, M. 
 THEORETICAL CHEMISTRY ACCOUNTS, 114 (1-3), 145-152 (2005). 
 Pseudopotentials for H to Kr optimized for gradient-corrected
 exchange-correlation functionals.
 https://doi.org/10.1007/s00214-005-0655-y

 VandeVondele, J; Krack, M; Mohamed, F; Parrinello, M; Chassaing, T;
 Hutter, J. COMPUTER PHYSICS COMMUNICATIONS, 167 (2), 103-128 (2005). 
 QUICKSTEP: Fast and accurate density functional calculations using a
 mixed Gaussian and plane waves approach.
 https://doi.org/10.1016/j.cpc.2004.12.014

 Frigo, M; Johnson, SG. 
 PROCEEDINGS OF THE IEEE, 93 (2), 216-231 (2005). 
 The design and implementation of FFTW3.
 https://doi.org/10.1109/JPROC.2004.840301

 Kolafa, J. 
 JOURNAL OF COMPUTATIONAL CHEMISTRY, 25 (3), 335-342 (2004). 
 Time-reversible always stable predictor-corrector method for
 molecular dynamics of polarizable molecules.
 https://doi.org/10.1002/jcc.10385

 VandeVondele, J; Hutter, J. 
 JOURNAL OF CHEMICAL PHYSICS, 118 (10), 4365-4369 (2003). 
 An efficient orbital transformation method for electronic structure
 calculations.
 https://doi.org/10.1063/1.1543154

 Hartwigsen, C; Goedecker, S; Hutter, J. 
 PHYSICAL REVIEW B, 58 (7), 3641-3662 (1998). 
 Relativistic separable dual-space Gaussian pseudopotentials from H to Rn.
 https://doi.org/10.1103/PhysRevB.58.3641

 Lippert, G; Hutter, J; Parrinello, M. 
 MOLECULAR PHYSICS, 92 (3), 477-487 (1997). 
 A hybrid Gaussian and plane wave density functional scheme.
 https://doi.org/10.1080/002689797170220

 Perdew, JP; Burke, K; Ernzerhof, M. 
 PHYSICAL REVIEW LETTERS, 77 (18), 3865-3868 (1996). 
 Generalized gradient approximation made simple.
 https://doi.org/10.1103/PhysRevLett.77.3865

 Goedecker, S; Teter, M; Hutter, J. 
 PHYSICAL REVIEW B, 54 (3), 1703-1710 (1996). 
 Separable dual-space Gaussian pseudopotentials.
 https://doi.org/10.1103/PhysRevB.54.1703


 -------------------------------------------------------------------------------
 -                                                                             -
 -                                T I M I N G                                  -
 -                                                                             -
 -------------------------------------------------------------------------------
 SUBROUTINE                       CALLS  ASD         SELF TIME        TOTAL TIME
                                MAXIMUM       AVERAGE  MAXIMUM  AVERAGE  MAXIMUM
 CP2K                                 1  1.0      0.2      0.3 167329.9 167330.5
 cp_geo_opt                           1  2.0      0.0      0.0 167327.8 167328.4
 geoopt_bfgs                          1  3.0      0.0      0.0 167327.8 167328.4
 cp_eval_at                         107  4.0      0.0      0.0 167289.9 167290.6
 qs_forces                          106  5.0      0.0      0.0 166459.1 166459.7
 qs_energies                        107  6.0      0.0      0.0 134235.2 134240.2
 scf_env_do_scf                     107  7.0      0.0      0.0 104201.4 104202.0
 scf_env_do_scf_inner_loop         1801  8.0      0.0      0.2  96521.5  96523.8
 qs_scf_new_mos                    1801  9.0      0.0      0.0  57741.4  57793.4
 qs_scf_loop_do_ot                 1801 10.0      0.0      0.0  57741.4  57793.4
 dbcsr_multiply_generic           42369 14.1      4.6      9.1  57417.1  57768.9
 ot_scf_mini                       1801 11.0      0.0      0.1  55034.6  55079.4
 rebuild_ks_matrix                 1907  9.8      0.0      0.0  40782.7  40814.6
 qs_ks_build_kohn_sham_matrix      1907 10.8      0.3      0.4  40782.7  40814.6
 multiply_cannon                  42369 15.1    105.8    166.2  36601.9  37800.9
 qs_ks_update_qs_env               1908  9.0      0.0      0.0  37637.3  37667.4
 ot_mini                           1801 12.0      0.0      0.1  37180.5  37194.5
 multiply_cannon_loop             42369 16.1     51.5     60.1  33637.5  34600.1
 qs_ot_get_derivative              1801 13.0      0.0      0.0  33447.2  33493.2
 build_core_hamiltonian_matrix_     106  6.0      0.0      0.0  19498.7  29696.6
 build_core_ppnl_forces             106  7.0  18296.8  27897.4  18296.8  27897.4
 qs_energies_init_hamiltonians      107  7.0      0.0      0.0  27792.2  27792.4
 build_core_hamiltonian_matrix      107  8.0      0.0      0.0  18247.4  27675.2
 build_core_ppnl                    107  9.0  17833.7  27045.8  17833.7  27045.8
 mp_sum_d                         63444 14.5  13762.5  24250.0  13762.5  24250.0
 multiply_cannon_multrec        1355808 17.1  21062.1  22921.1  21062.3  22921.4
 transfer_rs2pw                   19289 13.4      0.1      0.2  11986.9  21029.4
 mp_waitany                      347632 16.0  11840.6  20928.5  11840.6  20928.5
 calculate_ecore_overlap            213  7.0      0.0      0.0  10211.6  20122.0
 qs_ot_get_derivative_taylor       1420 14.0      0.0      0.5  19704.1  19738.8
 transfer_rs2pw_400                4029 14.3    114.8    139.6  10205.9  19256.2
 qs_env_update_s_mstruct            107  8.0      0.0      0.0   9505.9  18839.6
 calculate_rho_core                 107  9.0      0.8      1.8   9475.6  18810.2
 mp_waitall_1                   ******* 17.2  15436.1  18208.2  15436.1  18208.2
 pw_transfer                      74486 14.5      2.2      2.5  15467.8  15506.2
 fft_wrap_pw1pw2                  70672 15.6      0.2      0.3  15460.6  15498.8
 fft3d_ps                         70672 17.6    108.5    187.2  15424.3  15464.6
 mp_sum_l                        202967 15.1  13268.6  14127.0  13268.6  14127.0
 multiply_cannon_metrocomm3     1355808 17.1      2.5      2.9   9388.7  12202.4
 qs_ot_get_p                       1908 11.9      0.0      0.0  11057.0  11082.0
 mp_alltoall_z22v                 70672 19.6  10761.7  10950.6  10761.7  10950.6
 admm_mo_calc_rho_aux              1907 11.8      0.0      0.0  10258.6  10265.5
 fft_wrap_pw1pw2_400              40156 17.0      3.0      3.2   9637.9   9686.1
 calculate_rho_elec                3815 11.4      0.4      0.8   9529.5   9669.5
 sum_up_and_integrate              1907 11.8      0.0      0.1   8450.0   8453.9
 integrate_v_rspace                3814 12.8      0.2      0.5   8444.9   8449.1
 hfx_ks_matrix                     1907 11.8      0.1      0.1   7649.7   7659.8
 init_scf_loop                      107  8.0      0.0      0.0   7633.5   7636.7
 density_rs2pw                     3815 12.4      0.1      0.2   7463.6   7581.1
 integrate_four_center             1907 12.8     78.3     89.8   6918.2   6928.8
 potential_pw2rs                   3814 13.8      0.1      0.2   6678.0   6690.5
 qs_vxc_create                     3814 11.8      0.1      0.2   6684.2   6685.3
 xc_vxc_pw_create                  3814 12.8      3.4      5.5   6684.1   6685.3
 make_m2s                         84738 15.1      1.4      2.1   5633.7   6046.0
 make_images                      84738 16.1    238.9    250.2   5551.0   5930.1
 mp_sync                          72144 18.4   5389.3   5811.7   5389.3   5811.7
 multiply_cannon_metrocomm1     1355808 17.1      1.3      1.5   3123.4   5764.3
 qs_ot_get_derivative_diag          381 14.0      0.0      0.1   5493.9   5505.6
 xc_pw_derive                     22884 14.8      0.1      0.1   5484.1   5504.5
 mp_alltoall_d11v                 92333 15.4   4966.0   5259.5   4966.0   5259.5
 make_images_sizes                84738 17.1      0.1      0.1   4976.5   5203.3
 mp_alltoall_i44                  84738 18.1   4976.4   5203.2   4976.4   5203.2
 qs_rho_update_rho_low             1908  9.0      0.0      0.1   4964.7   5120.3
 qs_ot_get_orbitals                1801 12.0      0.0      0.0   5009.5   5051.3
 arnoldi_normal_ev                 2015 13.8      0.0      0.1   4969.3   5035.6
 x_to_yz                          20978 18.8     26.3     90.2   4903.1   4953.1
 integrate_four_center_main        1907 13.8     18.1     29.7   4694.1   4949.9
 integrate_four_center_bin       130249 14.8   4675.9   4925.0   4675.9   4925.0
 yz_to_x                          19178 19.1      3.3      6.4   4624.9   4652.3
 calculate_dm_mo_no_diag           1907 12.8      0.0      0.1   3949.6   4447.8
 mp_sum_dv                        95047 16.4   3590.7   4397.7   3590.7   4397.7
 dbcsr_complete_redistribute      17442 14.1      1.7      3.1   4051.4   4376.3
 build_subspace                    2140 14.7      0.2      0.8   4246.5   4292.1
 cp_dbcsr_plus_fm_fm_t_native      2120 13.4      0.0      0.1   3754.8   4073.9
 copy_dbcsr_to_fm                  7715 12.7      0.1      0.3   3779.0   3842.7
 arnoldi_extremal                  1908 12.9      0.0      0.0   3739.7   3803.0
 xc_pw_divergence                  3814 13.8      0.0      0.1   3721.8   3725.9
 mp_allgather_i34                 42369 16.1   2841.9   3630.7   2841.9   3630.7
 parallel_gemm_fm                  9625 13.3      0.0      0.1   3532.3   3579.4
 parallel_gemm_fm_cosma            9625 14.3   3532.3   3579.4   3532.3   3579.4
 prepare_preconditioner             107  9.0      0.0      0.0   3419.9   3420.5
 make_preconditioner                107 10.0      0.0      0.0   3419.9   3420.5
 -------------------------------------------------------------------------------

 The number of warnings for this run is : 1
 
 -------------------------------------------------------------------------------
  **** **** ******  **  PROGRAM ENDED AT                 2024-03-20 07:56:55.815
 ***** ** ***  *** **   PROGRAM RAN ON                               nesh-srp188
 **    ****   ******    PROGRAM RAN BY                                  suphc355
 ***** **    ** ** **   PROGRAM PROCESS ID                               3944453
  **** **  *******  **  PROGRAM STOPPED IN /gxfs_work/cau/suphc355/MOFs/CAU7_TAB
                                           A/geo_opt/HYB
