
 *******************************************************************************
 *   ___                                                                       *
 *  /   \                                                                      *
 * [ABORT]                                                                     *
 *  \___/      section STRUCTURE_DATA does not contain keyword __CONTROL_VAL   *
 *    |                                                                        *
 *  O/|                                                                        *
 * /| |                                                                        *
 * / \                                        input/input_section_types.F:1093 *
 *******************************************************************************


 ===== Routine Calling Stack ===== 

            5 write_structure_data
            4 cp_eval_at
            3 geoopt_bfgs
            2 cp_geo_opt
            1 CP2K
 DBCSR| CPU Multiplication driver                                           XSMM (U)
 DBCSR| Multrec recursion limit                                              512 (U)
 DBCSR| Multiplication stack size                                           1000 (D)
 DBCSR| Maximum elements for images                                    UNLIMITED (U)
 DBCSR| Multiplicative factor virtual images                                   1 (U)
 DBCSR| Use multiplication densification                                       T (D)
 DBCSR| Multiplication size stacks                                             3 (U)
 DBCSR| Use memory pool for CPU allocation                                     F (U)
 DBCSR| Number of 3D layers                                               SINGLE (U)
 DBCSR| Use MPI memory allocation                                              F (U)
 DBCSR| Use RMA algorithm                                                      F (U)
 DBCSR| Use Communication thread                                               T (U)
 DBCSR| Communication thread load                                             83 (D)
 DBCSR| MPI: My process id                                                     0
 DBCSR| MPI: Number of processes                                              64
 DBCSR| OMP: Current number of threads                                         2
 DBCSR| OMP: Max number of threads                                             2
 DBCSR| Split modifier for TAS multiplication algorithm                  1.0E+00 (U)


  **** **** ******  **  PROGRAM STARTED AT               2023-12-06 09:07:25.419
 ***** ** ***  *** **   PROGRAM STARTED ON                           nesh-clk480
 **    ****   ******    PROGRAM STARTED BY                              suphc355
 ***** **    ** ** **   PROGRAM PROCESS ID                               2222234
  **** **  *******  **  PROGRAM STARTED IN /gxfs_work/cau/suphc355/homologes/X2/
                                           opt/I

 CP2K| version string:                 CP2K version 2023.2 (Development Version)
 CP2K| source code revision number:                                  git:845a3ae
 CP2K| cp2kflags: omp libint fftw3 libxc parallel mpi_f08 scalapack cosma xsmm s
 CP2K|            pglib mkl
 CP2K| is freely available from                            https://www.cp2k.org/
 CP2K| Program compiled at                           Fr 1. Dez 12:58:35 CET 2023
 CP2K| Program compiled on                                           nesh-login3
 CP2K| Program compiled for                                                local
 CP2K| Data directory path            /gxfs_home/cau/suphc355/software/cp2k/data
 CP2K| Input file name                                                   opt.inp
 
 GLOBAL| Force Environment number                                              1
 GLOBAL| Basis set file name                                   ../../../basis_ae
 GLOBAL| Potential file name                                           POTENTIAL
 GLOBAL| MM Potential file name                                     MM_POTENTIAL
 GLOBAL| Coordinate file name                                          start.xyz
 GLOBAL| Method name                                                        CP2K
 GLOBAL| Project name                                                     I2_opt
 GLOBAL| Run type                                                        GEO_OPT
 GLOBAL| FFT library                                                       FFTW3
 GLOBAL| Diagonalization library                                       ScaLAPACK
 GLOBAL| DGEMM library                                                      BLAS
 GLOBAL| Orthonormality check for eigenvectors                          DISABLED
 GLOBAL| Matrix multiplication library                                     COSMA
 GLOBAL| All-to-all communication in single precision                          F
 GLOBAL| FFTs using library dependent lengths                                  F
 GLOBAL| Grid backend                                                       AUTO
 GLOBAL| Global print level                                               MEDIUM
 GLOBAL| MPI I/O enabled                                                       T
 GLOBAL| Total number of message passing processes                            64
 GLOBAL| Number of threads for this process                                    2
 GLOBAL| This output is from process                                           0
 GLOBAL| Stack size for threads created by OpenMP (OMP_STACKSIZE)        default
 GLOBAL| CPU model name                Intel(R) Xeon(R) Gold 6226R CPU @ 2.90GHz
 GLOBAL| CPUID                                                              1003

 MEMORY| system memory details [Kb]
 MEMORY|                        rank 0           min           max       average
 MEMORY| MemTotal            196683224     196683224     196683224     196683224
 MEMORY| MemFree             176330784     175659836     176331680     175995394
 MEMORY| Buffers                660424        660424        890192        775308
 MEMORY| Cached                1180300       1180300       1407820       1294158
 MEMORY| Slab                   831816        831816        920888        876352
 MEMORY| SReclaimable           165256        165256        230432        197844
 MEMORY| MemLikelyFree       178336764     178188280     178337848     178262704


 *** Fundamental physical constants (SI units) ***

 *** Literature: B. J. Mohr and B. N. Taylor,
 ***             CODATA recommended values of the fundamental physical
 ***             constants: 2006, Web Version 5.1
 ***             http://physics.nist.gov/constants

 Speed of light in vacuum [m/s]                             2.99792458000000E+08
 Magnetic constant or permeability of vacuum [N/A**2]       1.25663706143592E-06
 Electric constant or permittivity of vacuum [F/m]          8.85418781762039E-12
 Planck constant (h) [J*s]                                  6.62606896000000E-34
 Planck constant (h-bar) [J*s]                              1.05457162825177E-34
 Elementary charge [C]                                      1.60217648700000E-19
 Electron mass [kg]                                         9.10938215000000E-31
 Electron g factor [ ]                                     -2.00231930436220E+00
 Proton mass [kg]                                           1.67262163700000E-27
 Fine-structure constant                                    7.29735253760000E-03
 Rydberg constant [1/m]                                     1.09737315685270E+07
 Avogadro constant [1/mol]                                  6.02214179000000E+23
 Boltzmann constant [J/K]                                   1.38065040000000E-23
 Atomic mass unit [kg]                                      1.66053878200000E-27
 Bohr radius [m]                                            5.29177208590000E-11

 *** Conversion factors ***

 [u] -> [a.u.]                                              1.82288848426455E+03
 [Angstrom] -> [Bohr] = [a.u.]                              1.88972613288564E+00
 [a.u.] = [Bohr] -> [Angstrom]                              5.29177208590000E-01
 [a.u.] -> [s]                                              2.41888432650478E-17
 [a.u.] -> [fs]                                             2.41888432650478E-02
 [a.u.] -> [J]                                              4.35974393937059E-18
 [a.u.] -> [N]                                              8.23872205491840E-08
 [a.u.] -> [K]                                              3.15774647902944E+05
 [a.u.] -> [kJ/mol]                                         2.62549961709828E+03
 [a.u.] -> [kcal/mol]                                       6.27509468713739E+02
 [a.u.] -> [Pa]                                             2.94210107994716E+13
 [a.u.] -> [bar]                                            2.94210107994716E+08
 [a.u.] -> [atm]                                            2.90362800883016E+08
 [a.u.] -> [eV]                                             2.72113838565563E+01
 [a.u.] -> [Hz]                                             6.57968392072181E+15
 [a.u.] -> [1/cm] (wave numbers)                            2.19474631370540E+05
 [a.u./Bohr**2] -> [1/cm]                                   5.14048714338585E+03
 

 CELL_TOP| Volume [angstrom^3]:                                       512.000000
 CELL_TOP| Vector a [angstrom     8.000     0.000     0.000   |a| =     8.000000
 CELL_TOP| Vector b [angstrom     0.000     8.000     0.000   |b| =     8.000000
 CELL_TOP| Vector c [angstrom     0.000     0.000     8.000   |c| =     8.000000
 CELL_TOP| Angle (b,c), alpha [degree]:                                90.000000
 CELL_TOP| Angle (a,c), beta  [degree]:                                90.000000
 CELL_TOP| Angle (a,b), gamma [degree]:                                90.000000
 CELL_TOP| Numerically orthorhombic:                                         YES
 CELL_TOP| Periodicity                                                      NONE
 
 GENERATE|  Preliminary Number of Bonds generated:                             0
 GENERATE|  Achieved consistency in connectivity generation.

 CELL| Volume [angstrom^3]:                                           512.000000
 CELL| Vector a [angstrom]:       8.000     0.000     0.000   |a| =     8.000000
 CELL| Vector b [angstrom]:       0.000     8.000     0.000   |b| =     8.000000
 CELL| Vector c [angstrom]:       0.000     0.000     8.000   |c| =     8.000000
 CELL| Angle (b,c), alpha [degree]:                                    90.000000
 CELL| Angle (a,c), beta  [degree]:                                    90.000000
 CELL| Angle (a,b), gamma [degree]:                                    90.000000
 CELL| Numerically orthorhombic:                                             YES
 CELL| Periodicity                                                          NONE

 CELL_REF| Volume [angstrom^3]:                                       512.000000
 CELL_REF| Vector a [angstrom     8.000     0.000     0.000   |a| =     8.000000
 CELL_REF| Vector b [angstrom     0.000     8.000     0.000   |b| =     8.000000
 CELL_REF| Vector c [angstrom     0.000     0.000     8.000   |c| =     8.000000
 CELL_REF| Angle (b,c), alpha [degree]:                                90.000000
 CELL_REF| Angle (a,c), beta  [degree]:                                90.000000
 CELL_REF| Angle (a,b), gamma [degree]:                                90.000000
 CELL_REF| Numerically orthorhombic:                                         YES
 CELL_REF| Periodicity                                                      NONE

 *******************************************************************************
 *******************************************************************************
 **                                                                           **
 **     #####                         ##              ##                      **
 **    ##   ##            ##          ##              ##                      **
 **   ##     ##                       ##            ######                    **
 **   ##     ##  ##   ##  ##   #####  ##  ##   ####   ##    #####    #####    **
 **   ##     ##  ##   ##  ##  ##      ## ##   ##      ##   ##   ##  ##   ##   **
 **   ##  ## ##  ##   ##  ##  ##      ####     ###    ##   ######   ######    **
 **    ##  ###   ##   ##  ##  ##      ## ##      ##   ##   ##       ##        **
 **     #######   #####   ##   #####  ##  ##  ####    ##    #####   ##        **
 **           ##                                                    ##        **
 **                                                                           **
 **                                                ... make the atoms dance   **
 **                                                                           **
 **            Copyright (C) by CP2K developers group (2000-2023)             **
 **                      J. Chem. Phys. 152, 194103 (2020)                    **
 **                                                                           **
 *******************************************************************************

 DFT| Spin restricted Kohn-Sham (RKS) calculation                            RKS
 DFT| Multiplicity                                                             1
 DFT| Number of spin states                                                    1
 DFT| Charge                                                                   0
 DFT| Self-interaction correction (SIC)                                       NO
 DFT| Cutoffs: density                                              1.000000E-10
 DFT|          gradient                                             1.000000E-10
 DFT|          tau                                                  1.000000E-10
 DFT|          cutoff_smoothing_range                               0.000000E+00
 DFT| XC density smoothing                                                  NONE
 DFT| XC derivatives                                                          PW

 FUNCTIONAL| PBE:
 FUNCTIONAL| J.P.Perdew, K.Burke, M.Ernzerhof, Phys. Rev. Letter, vol. 77, n 18,
 FUNCTIONAL|  pp. 3865-3868, (1996) {spin unpolarized}                          


 QS| Method:                                                                GAPW
 QS| Density plane wave grid type                        NON-SPHERICAL FULLSPACE
 QS| Number of grid levels:                                                    5
 QS| Density cutoff [a.u.]:                                                600.0
 QS| Multi grid cutoff [a.u.]: 1) grid level                               600.0
 QS|                           2) grid level                               200.0
 QS|                           3) grid level                                66.7
 QS|                           4) grid level                                22.2
 QS|                           5) grid level                                 7.4
 QS| Grid level progression factor:                                          3.0
 QS| Relative density cutoff [a.u.]:                                        40.0
 QS| Interaction thresholds: eps_pgf_orb:                                1.0E-30
 QS|                         eps_filter_matrix:                          0.0E+00
 QS|                         eps_core_charge:                            1.0E-17
 QS|                         eps_rho_gspace:                             1.0E-15
 QS|                         eps_rho_rspace:                             1.0E-15
 QS|                         eps_gvg_rspace:                             3.2E-08
 QS|                         eps_ppl:                                    1.0E-02
 QS|                         eps_ppnl:                                   3.2E-10
 QS| GAPW|      One center basis from orbital basis primitives
 QS| GAPW|                   eps_fit:                                    1.0E-04
 QS| GAPW|                   eps_iso:                                    1.0E-12
 QS| GAPW|                   eps_svd:                                    1.0E-08
 QS| GAPW|                   eps_cpc:                                    1.0E-15
 QS| GAPW|   atom-r-grid: quadrature:                                     GC_LOG
 QS| GAPW|      atom-s-grid:  max l :                                          6
 QS| GAPW|      max_l_rho0 :                                                   2


 ATOMIC KIND INFORMATION

  1. Atomic kind: I                                     Number of atoms:       2

     Orbital Basis Set                                                 def2-TZVP

       Number of orbital shell sets:                                          16
       Number of orbital shells:                                              16
       Number of primitive Cartesian functions:                               31
       Number of Cartesian basis functions:                                   59
       Number of spherical basis functions:                                   50
       Norm type:                                                              2

       Normalised Cartesian orbitals:

                        Set   Shell   Orbital            Exponent    Coefficient

                          1       1    1s             5899.579153       0.125221
                                                       898.542388       0.195305
                                                       200.372379       0.175448
                                                        31.418054      -0.402285
                                                        15.645988       5.813272

                          2       1    1s               11.815742       2.957264
                                                         6.461446       1.052061

                          3       1    1s                2.383807       1.367299

                          4       1    1s                1.171209       0.802391

                          5       1    1s                0.321159       0.304053

                          6       1    1s                0.123879       0.148819

                          7       1    1px             197.300305       3.365255
                                                        20.061411      17.288835
                                                         9.763146     -30.326841
                          7       1    1py             197.300305       3.365255
                                                        20.061411      17.288835
                                                         9.763146     -30.326841
                          7       1    1pz             197.300305       3.365255
                                                        20.061411      17.288835
                                                         9.763146     -30.326841

                          8       1    1px              12.984317      -1.358999
                                                         3.619950       2.182159
                                                         2.023227       1.777988
                                                         1.036749       0.373650
                          8       1    1py              12.984317      -1.358999
                                                         3.619950       2.182159
                                                         2.023227       1.777988
                                                         1.036749       0.373650
                          8       1    1pz              12.984317      -1.358999
                                                         3.619950       2.182159
                                                         2.023227       1.777988
                                                         1.036749       0.373650

                          9       1    1px               0.459378       0.539080
                          9       1    1py               0.459378       0.539080
                          9       1    1pz               0.459378       0.539080

                         10       1    1px               0.191165       0.180178
                         10       1    1py               0.191165       0.180178
                         10       1    1pz               0.191165       0.180178

                         11       1    1px               0.074879       0.055833
                         11       1    1py               0.074879       0.055833
                         11       1    1pz               0.074879       0.055833

                         12       1    1dx2            119.126717       6.247413
                                                        33.404240       5.588459
                                                        17.805918      -2.801520
                                                         4.899051       6.439930
                                                         2.451675       3.736904
                                                         1.182069       0.867777
                         12       1    1dxy            119.126717      10.820837
                                                        33.404240       9.679495
                                                        17.805918      -4.852375
                                                         4.899051      11.154287
                                                         2.451675       6.472508
                                                         1.182069       1.503035
                         12       1    1dxz            119.126717      10.820837
                                                        33.404240       9.679495
                                                        17.805918      -4.852375
                                                         4.899051      11.154287
                                                         2.451675       6.472508
                                                         1.182069       1.503035
                         12       1    1dy2            119.126717       6.247413
                                                        33.404240       5.588459
                                                        17.805918      -2.801520
                                                         4.899051       6.439930
                                                         2.451675       3.736904
                                                         1.182069       0.867777
                         12       1    1dyz            119.126717      10.820837
                                                        33.404240       9.679495
                                                        17.805918      -4.852375
                                                         4.899051      11.154287
                                                         2.451675       6.472508
                                                         1.182069       1.503035
                         12       1    1dz2            119.126717       6.247413
                                                        33.404240       5.588459
                                                        17.805918      -2.801520
                                                         4.899051       6.439930
                                                         2.451675       3.736904
                                                         1.182069       0.867777

                         13       1    1dx2              0.529231       0.540491
                         13       1    1dxy              0.529231       0.936159
                         13       1    1dxz              0.529231       0.936159
                         13       1    1dy2              0.529231       0.540491
                         13       1    1dyz              0.529231       0.936159
                         13       1    1dz2              0.529231       0.540491

                         14       1    1dx2              0.170000       0.074079
                         14       1    1dxy              0.170000       0.128309
                         14       1    1dxz              0.170000       0.128309
                         14       1    1dy2              0.170000       0.074079
                         14       1    1dyz              0.170000       0.128309
                         14       1    1dz2              0.170000       0.074079

                         15       1    1fx3              2.180000       8.501226
                         15       1    1fx2y             2.180000      19.009319
                         15       1    1fx2z             2.180000      19.009319
                         15       1    1fxy2             2.180000      19.009319
                         15       1    1fxyz             2.180000      32.925107
                         15       1    1fxz2             2.180000      19.009319
                         15       1    1fy3              2.180000       8.501226
                         15       1    1fy2z             2.180000      19.009319
                         15       1    1fyz2             2.180000      19.009319
                         15       1    1fz3              2.180000       8.501226

                         16       1    1fx3              0.441418       0.233812
                         16       1    1fx2y             0.441418       0.522820
                         16       1    1fx2z             0.441418       0.522820
                         16       1    1fxy2             0.441418       0.522820
                         16       1    1fxyz             0.441418       0.905551
                         16       1    1fxz2             0.441418       0.522820
                         16       1    1fy3              0.441418       0.233812
                         16       1    1fy2z             0.441418       0.522820
                         16       1    1fyz2             0.441418       0.522820
                         16       1    1fz3              0.441418       0.233812

       Atomic covalent radius [Angstrom]:                                  1.330

       Atomic van der Waals radius [Angstrom]:                             1.980

     The atoms of this atomic kind are PAW atoms (GAPW):
       Hard Gaussian function radius:                                      1.512
       Rho0 radius:                                                        1.512
       Maximum GTO radius used for PAW projector construction:            24.566

     GAPW Soft Basis Set                                          def2-TZVP_soft

       Number of orbital shell sets:                                          16
       Number of orbital shells:                                              16
       Number of primitive Cartesian functions:                               16
       Number of Cartesian basis functions:                                   59
       Number of spherical basis functions:                                   50
       Norm type:                                                              2

       Normalised Cartesian orbitals:

                        Set   Shell   Orbital            Exponent    Coefficient

                          1       1    1s         

                          2       1    1s         

                          3       1    1s                2.383807       1.367299

                          4       1    1s                1.171209       0.802391

                          5       1    1s                0.321159       0.304053

                          6       1    1s                0.123879       0.148819

                          7       1    1px        
                          7       1    1py        
                          7       1    1pz        

                          8       1    1px               3.619950       2.182159
                                                         2.023227       1.777988
                                                         1.036749       0.373650
                          8       1    1py               3.619950       2.182159
                                                         2.023227       1.777988
                                                         1.036749       0.373650
                          8       1    1pz               3.619950       2.182159
                                                         2.023227       1.777988
                                                         1.036749       0.373650

                          9       1    1px               0.459378       0.539080
                          9       1    1py               0.459378       0.539080
                          9       1    1pz               0.459378       0.539080

                         10       1    1px               0.191165       0.180178
                         10       1    1py               0.191165       0.180178
                         10       1    1pz               0.191165       0.180178

                         11       1    1px               0.074879       0.055833
                         11       1    1py               0.074879       0.055833
                         11       1    1pz               0.074879       0.055833

                         12       1    1dx2              2.451675       3.736904
                                                         1.182069       0.867777
                         12       1    1dxy              2.451675       6.472508
                                                         1.182069       1.503035
                         12       1    1dxz              2.451675       6.472508
                                                         1.182069       1.503035
                         12       1    1dy2              2.451675       3.736904
                                                         1.182069       0.867777
                         12       1    1dyz              2.451675       6.472508
                                                         1.182069       1.503035
                         12       1    1dz2              2.451675       3.736904
                                                         1.182069       0.867777

                         13       1    1dx2              0.529231       0.540491
                         13       1    1dxy              0.529231       0.936159
                         13       1    1dxz              0.529231       0.936159
                         13       1    1dy2              0.529231       0.540491
                         13       1    1dyz              0.529231       0.936159
                         13       1    1dz2              0.529231       0.540491

                         14       1    1dx2              0.170000       0.074079
                         14       1    1dxy              0.170000       0.128309
                         14       1    1dxz              0.170000       0.128309
                         14       1    1dy2              0.170000       0.074079
                         14       1    1dyz              0.170000       0.128309
                         14       1    1dz2              0.170000       0.074079

                         15       1    1fx3              2.180000       8.501226
                         15       1    1fx2y             2.180000      19.009319
                         15       1    1fx2z             2.180000      19.009319
                         15       1    1fxy2             2.180000      19.009319
                         15       1    1fxyz             2.180000      32.925107
                         15       1    1fxz2             2.180000      19.009319
                         15       1    1fy3              2.180000       8.501226
                         15       1    1fy2z             2.180000      19.009319
                         15       1    1fyz2             2.180000      19.009319
                         15       1    1fz3              2.180000       8.501226

                         16       1    1fx3              0.441418       0.233812
                         16       1    1fx2y             0.441418       0.522820
                         16       1    1fx2z             0.441418       0.522820
                         16       1    1fxy2             0.441418       0.522820
                         16       1    1fxyz             0.441418       0.905551
                         16       1    1fxz2             0.441418       0.522820
                         16       1    1fy3              0.441418       0.233812
                         16       1    1fy2z             0.441418       0.522820
                         16       1    1fyz2             0.441418       0.522820
                         16       1    1fz3              0.441418       0.233812

     AE Potential information for                                            ALL

       Description:                                       All-electron potential
                                          Krack, Parrinello, PCCP 2, 2105 (2000)

       Gaussian exponent of the core charge distribution:               2.000000
       Electronic configuration (s p d ...):                          10  23  20


 MOLECULE KIND INFORMATION


 All atoms are their own molecule, skipping detailed information


 TOTAL NUMBERS AND MAXIMUM NUMBERS

  Total number of            - Atomic kinds:                                   1
                             - Atoms:                                          2
                             - Shell sets:                                    32
                             - Shells:                                        32
                             - Primitive Cartesian functions:                 62
                             - Cartesian basis functions:                    118
                             - Spherical basis functions:                    100

  Maximum angular momentum of the orbital basis functions:                     3


 MODULE QUICKSTEP: ATOMIC COORDINATES IN ANGSTROM

   Atom Kind Element         X             Y             Z       Z(eff)     Mass
      1    1 I    53      3.250000      4.000000      4.000000  53.0000 126.9045
      2    1 I    53      4.750000      4.000000      4.000000  53.0000 126.9045



 SCF PARAMETERS         Density guess:                                    ATOMIC
                        --------------------------------------------------------
                        max_scf:                                              20
                        max_scf_history:                                       0
                        max_diis:                                              4
                        --------------------------------------------------------
                        eps_scf:                                        1.00E-08
                        eps_scf_history:                                0.00E+00
                        eps_diis:                                       1.00E-01
                        eps_eigval:                                     1.00E-05
                        --------------------------------------------------------
                        level_shift [a.u.]:                             0.000000
                        --------------------------------------------------------
                        Outer loop SCF in use 
                        No variables optimised in outer loop
                        eps_scf                                         1.00E-08
                        max_scf                                               50
                        No outer loop optimization
                        step_size                                       5.00E-01

 PW_GRID| Information for grid number                                          1
 PW_GRID| Grid distributed over                                    64 processors
 PW_GRID| Real space group dimensions                                    64    1
 PW_GRID| the grid is blocked:                                                NO
 PW_GRID| Cutoff [a.u.]                                                   1200.0
 PW_GRID| spherical cutoff:                                                   NO
 PW_GRID|   Bounds   1           -120     119                Points:         240
 PW_GRID|   Bounds   2           -120     119                Points:         240
 PW_GRID|   Bounds   3           -120     119                Points:         240
 PW_GRID| Volume element (a.u.^3)  0.2499E-03     Volume (a.u.^3)      3455.1473
 PW_GRID| Grid span                                                    FULLSPACE
 PW_GRID|   Distribution                         Average         Max         Min
 PW_GRID|   G-Vectors                           216000.0      216000      216000
 PW_GRID|   G-Rays                                 900.0         900         900
 PW_GRID|   Real Space Points                   216000.0      230400      172800

 PW_GRID| Information for grid number                                          2
 PW_GRID| Number of the reference grid                                         1
 PW_GRID| Grid distributed over                                    64 processors
 PW_GRID| Real space group dimensions                                    64    1
 PW_GRID| the grid is blocked:                                                NO
 PW_GRID| Cutoff [a.u.]                                                    600.0
 PW_GRID| spherical cutoff:                                                   NO
 PW_GRID|   Bounds   1            -90      89                Points:         180
 PW_GRID|   Bounds   2            -90      89                Points:         180
 PW_GRID|   Bounds   3            -90      89                Points:         180
 PW_GRID| Volume element (a.u.^3)  0.5924E-03     Volume (a.u.^3)      3455.1473
 PW_GRID| Grid span                                                    FULLSPACE
 PW_GRID|   Distribution                         Average         Max         Min
 PW_GRID|   G-Vectors                            91125.0       91440       90720
 PW_GRID|   G-Rays                                 506.2         508         504
 PW_GRID|   Real Space Points                    91125.0       97200       64800

 PW_GRID| Information for grid number                                          3
 PW_GRID| Number of the reference grid                                         2
 PW_GRID| Grid distributed over                                    64 processors
 PW_GRID| Real space group dimensions                                    64    1
 PW_GRID| the grid is blocked:                                                NO
 PW_GRID| Cutoff [a.u.]                                                    200.0
 PW_GRID| spherical cutoff:                                                   NO
 PW_GRID|   Bounds   1            -50      49                Points:         100
 PW_GRID|   Bounds   2            -50      49                Points:         100
 PW_GRID|   Bounds   3            -50      49                Points:         100
 PW_GRID| Volume element (a.u.^3)  0.3455E-02     Volume (a.u.^3)      3455.1473
 PW_GRID| Grid span                                                    FULLSPACE
 PW_GRID|   Distribution                         Average         Max         Min
 PW_GRID|   G-Vectors                            15625.0       15800       15500
 PW_GRID|   G-Rays                                 156.2         158         155
 PW_GRID|   Real Space Points                    15625.0       20000       10000

 PW_GRID| Information for grid number                                          4
 PW_GRID| Number of the reference grid                                         2
 PW_GRID| Grid distributed over                                    64 processors
 PW_GRID| Real space group dimensions                                     8    8
 PW_GRID| the grid is blocked:                                                NO
 PW_GRID| Cutoff [a.u.]                                                     66.7
 PW_GRID| spherical cutoff:                                                   NO
 PW_GRID|   Bounds   1            -30      29                Points:          60
 PW_GRID|   Bounds   2            -30      29                Points:          60
 PW_GRID|   Bounds   3            -30      29                Points:          60
 PW_GRID| Volume element (a.u.^3)  0.1600E-01     Volume (a.u.^3)      3455.1473
 PW_GRID| Grid span                                                    FULLSPACE
 PW_GRID|   Distribution                         Average         Max         Min
 PW_GRID|   G-Vectors                             3375.0        3540        3240
 PW_GRID|   G-Rays                                  56.2          59          54
 PW_GRID|   Real Space Points                     3375.0        3840        2940

 PW_GRID| Information for grid number                                          5
 PW_GRID| Number of the reference grid                                         2
 PW_GRID| Grid distributed over                                    64 processors
 PW_GRID| Real space group dimensions                                     8    8
 PW_GRID| the grid is blocked:                                                NO
 PW_GRID| Cutoff [a.u.]                                                     22.2
 PW_GRID| spherical cutoff:                                                   NO
 PW_GRID|   Bounds   1            -18      17                Points:          36
 PW_GRID|   Bounds   2            -18      17                Points:          36
 PW_GRID|   Bounds   3            -18      17                Points:          36
 PW_GRID| Volume element (a.u.^3)  0.7406E-01     Volume (a.u.^3)      3455.1473
 PW_GRID| Grid span                                                    FULLSPACE
 PW_GRID|   Distribution                         Average         Max         Min
 PW_GRID|   G-Vectors                              729.0         792         684
 PW_GRID|   G-Rays                                  20.2          22          19
 PW_GRID|   Real Space Points                      729.0         900         576

 PW_GRID| Information for grid number                                          6
 PW_GRID| Number of the reference grid                                         2
 PW_GRID| Grid distributed over                                    64 processors
 PW_GRID| Real space group dimensions                                     8    8
 PW_GRID| the grid is blocked:                                                NO
 PW_GRID| Cutoff [a.u.]                                                      7.4
 PW_GRID| spherical cutoff:                                                   NO
 PW_GRID|   Bounds   1            -10       9                Points:          20
 PW_GRID|   Bounds   2            -10       9                Points:          20
 PW_GRID|   Bounds   3            -10       9                Points:          20
 PW_GRID| Volume element (a.u.^3)  0.4319         Volume (a.u.^3)      3455.1473
 PW_GRID| Grid span                                                    FULLSPACE
 PW_GRID|   Distribution                         Average         Max         Min
 PW_GRID|   G-Vectors                              125.0         140         100
 PW_GRID|   G-Rays                                   6.2           7           5
 PW_GRID|   Real Space Points                      125.0         180          80

 POISSON| Solver                                          Martyna-Tuckerman (MT)
 POISSON| MT| Alpha                                                        7.000
 POISSON| MT| Relative cutoff                                                2.0
 POISSON| Periodicity                                                       NONE

 RS_GRID| Information for grid number                                          2
 RS_GRID|   Bounds   1            -90      89                Points:         180
 RS_GRID|   Bounds   2            -90      89                Points:         180
 RS_GRID|   Bounds   3            -90      89                Points:         180
 RS_GRID| Real space fully replicated
 RS_GRID| Group size                                                           1

 RS_GRID| Information for grid number                                          3
 RS_GRID|   Bounds   1            -50      49                Points:         100
 RS_GRID|   Bounds   2            -50      49                Points:         100
 RS_GRID|   Bounds   3            -50      49                Points:         100
 RS_GRID| Real space fully replicated
 RS_GRID| Group size                                                           1

 RS_GRID| Information for grid number                                          4
 RS_GRID|   Bounds   1            -30      29                Points:          60
 RS_GRID|   Bounds   2            -30      29                Points:          60
 RS_GRID|   Bounds   3            -30      29                Points:          60
 RS_GRID| Real space fully replicated
 RS_GRID| Group size                                                           1

 RS_GRID| Information for grid number                                          5
 RS_GRID|   Bounds   1            -18      17                Points:          36
 RS_GRID|   Bounds   2            -18      17                Points:          36
 RS_GRID|   Bounds   3            -18      17                Points:          36
 RS_GRID| Real space fully replicated
 RS_GRID| Group size                                                           1

 RS_GRID| Information for grid number                                          6
 RS_GRID|   Bounds   1            -10       9                Points:          20
 RS_GRID|   Bounds   2            -10       9                Points:          20
 RS_GRID|   Bounds   3            -10       9                Points:          20
 RS_GRID| Real space fully replicated
 RS_GRID| Group size                                                           1

 BFGS| Use rational function optimization for step estimation:                NO
 BFGS| Use model Hessian for initial guess:                                  YES
 BFGS| Restart Hessian:                                                       NO
 BFGS| Trust radius:                                                       0.472

 *******************************************************************************
 ***                     STARTING GEOMETRY OPTIMIZATION                      ***
 ***                                   BFGS                                  ***
 *******************************************************************************

 Number of electrons:                                                        106
 Number of occupied orbitals:                                                 53
 Number of molecular orbitals:                                                53

 Number of orbital functions:                                                100
 Number of independent orbital functions:                                    100

 Extrapolation method: initial_guess

 Atomic guess: The first density matrix is obtained in terms of atomic orbitals
               and electronic configurations assigned to each atomic kind

 Guess for atomic kind: I

 Electronic structure
    Total number of core electrons                                          0.00
    Total number of valence electrons                                      53.00
    Total number of electrons                                              53.00
    Multiplicity                                                   not specified
    S      2.00  2.00  2.00  2.00  2.00
    P      6.00  6.00  6.00  5.00
    D     10.00 10.00
 

 *******************************************************************************
                  Iteration          Convergence                     Energy [au]
 *******************************************************************************
                          1         33.6997                   -2599.756559702364
                          2         1.12051                   -2653.403674683851
                          3        0.201531                   -2654.140628646245
                          4        0.250747E-01               -2654.190586081578
                          5        0.669858E-03               -2654.191217641383
                          6        0.844023E-05               -2654.191218155315
                          7        0.160102E-06               -2654.191218155336

 Energy components [Hartree]           Total Energy ::        -2654.191218155336
                                        Band Energy ::        -1574.946463341832
                                     Kinetic Energy ::          516.211550421985
                                   Potential Energy ::        -3170.402768577321
                                      Virial (-V/T) ::            6.141673439863
                                        Core Energy ::        -3692.764941419901
                                          XC Energy ::          -59.696737257917
                                     Coulomb Energy ::         1098.270460522482

 Orbital energies  State     L     Occupation   Energy[a.u.]          Energy[eV]

                       1     0          2.000    -301.513628        -8204.603058
                       2     0          2.000     -69.876308        -1901.431042
                       3     0          2.000     -20.589599         -560.271478
                       4     0          2.000      -5.318870         -144.733815
                       5     0          2.000      -0.778336          -21.179595
 
                       1     1          6.000     -75.751895        -2061.313904
                       2     1          6.000     -17.406033         -473.642238
                       3     1          6.000      -2.813452          -76.557923
                       4     1          5.000      -0.181962           -4.951442
 
                       1     2         10.000     -18.455302         -502.194301
                       2     2         10.000      -1.750187          -47.625018
 

 Total Electron Density at R=0:                                       204.269359
 Re-scaling the density matrix to get the right number of electrons
                  # Electrons              Trace(P)               Scaling factor
                          106               106.000                        1.000


 SCF WAVEFUNCTION OPTIMIZATION

  ----------------------------------- OT ---------------------------------------
  Minimizer      : DIIS                : direct inversion
                                         in the iterative subspace
                                         using   7 DIIS vectors
                                         safer DIIS on
  Preconditioner : FULL_ALL            : diagonalization, state selective
  Precond_solver : DEFAULT
  stepsize       :    0.15000000                  energy_gap     :    0.08000000
  eps_taylor     :   0.10000E-15                  max_taylor     :             4
  ----------------------------------- OT ---------------------------------------

  Step     Update method      Time    Convergence         Total energy    Change
  ------------------------------------------------------------------------------
     1 OT DIIS     0.15E+00   27.0     0.23732864     -5271.9243354959 -5.27E+03
     2 OT DIIS     0.15E+00   18.5     0.09259573     -5302.8569934816 -3.09E+01
     3 OT DIIS     0.15E+00   21.4     0.05274638     -5309.2492438969 -6.39E+00
     4 OT SD       0.15E+00   18.7     0.05678149     -5312.5756016481 -3.33E+00
     5 OT SD       0.15E+00   19.6     0.06227106     -5315.2246916942 -2.65E+00
     6 OT SD       0.15E+00   19.4     0.07023527     -5318.5017595699 -3.28E+00
     7 OT SD       0.15E+00   19.2     0.07819561     -5322.6500218951 -4.15E+00
     8 OT SD       0.15E+00   19.4     0.08468591     -5327.7241040826 -5.07E+00
     9 OT SD       0.15E+00   20.1     0.08838794     -5333.5664506397 -5.84E+00
    10 OT SD       0.15E+00   19.4     0.08859676     -5339.8018260856 -6.24E+00
    11 OT DIIS     0.15E+00   19.8     0.08548135     -5345.9464706364 -6.14E+00
    12 OT SD       0.15E+00   19.0     0.09006548     -5353.6840690438 -7.74E+00
    13 OT SD       0.15E+00   19.4     0.07881473     -5359.7350097593 -6.05E+00
    14 OT SD       0.15E+00   20.0     0.06788179     -5364.3327408418 -4.60E+00
    15 OT DIIS     0.15E+00   19.9     0.05814168     -5367.7319860263 -3.40E+00
    16 OT DIIS     0.15E+00   21.4     0.05480815     -5368.9055058156 -1.17E+00
    17 OT SD       0.15E+00   19.7     0.02727135     -5374.5928254670 -5.69E+00
    18 OT DIIS     0.15E+00   20.7     0.02540103     -5375.1626673245 -5.70E-01
    19 OT DIIS     0.15E+00   22.3     0.02088959     -5374.1251047047  1.04E+00
    20 OT DIIS     0.15E+00   20.2     0.02065582     -5374.8143391008 -6.89E-01

  Leaving inner SCF loop after reaching    20 steps.


  Electronic density on regular grids:       -119.9909796754      -13.9909796754
  Core density on regular grids:              106.0000000000        0.0000000000
  Hard and soft densities (Lebedev):         -239.1997899779     -253.1908054624
  Total Rho_soft + Rho1_hard - Rho1_soft     -105.9999641909
  Total charge density (r-space):               0.0000358091
  Total Rho_soft + Rho0_soft (g-space):         0.0000345769

  Overlap energy of the core charge distribution:               0.06049904422023
  Self energy of the core charge distribution:              -3169.61708037129574
  Core Hamiltonian energy:                                  -2154.77135722164257
  Hartree energy:                                            1235.27851312237590
  Exchange-correlation energy:                               -172.74038085246875

  GAPW| Exc from hard and soft atomic rho1:                    37.88022666023387
  GAPW| local Eh = 1 center integrals:                      -1150.90475948223957

  Total energy:                                             -5374.81433910081614

  outer SCF iter =    1 RMS gradient =   0.21E-01 energy =      -5374.8143391008

  ----------------------------------- OT ---------------------------------------
  Minimizer      : DIIS                : direct inversion
                                         in the iterative subspace
                                         using   7 DIIS vectors
                                         safer DIIS on
  Preconditioner : FULL_ALL            : diagonalization, state selective
  Precond_solver : DEFAULT
  stepsize       :    0.15000000                  energy_gap     :    0.08000000
  eps_taylor     :   0.10000E-15                  max_taylor     :             4
  ----------------------------------- OT ---------------------------------------

  Step     Update method      Time    Convergence         Total energy    Change
  ------------------------------------------------------------------------------
     1 OT DIIS     0.15E+00   48.4     0.16706471     -5375.0374393807 -2.23E-01
     2 OT DIIS     0.15E+00   20.1     0.08420926     -5383.5225515278 -8.49E+00
     3 OT DIIS     0.15E+00   20.2     0.22090136     -5383.5689454577 -4.64E-02
     4 OT SD       0.15E+00   21.5     0.19621247     -5386.9745617364 -3.41E+00
     5 OT SD       0.15E+00   21.8     0.24370288     -5387.3209647992 -3.46E-01
     6 OT SD       0.15E+00   19.7     0.25679951     -5389.4393824680 -2.12E+00
     7 OT SD       0.15E+00   18.8     0.22526402     -5391.2738566281 -1.83E+00
     8 OT SD       0.15E+00   19.5     0.24749144     -5391.0699471804  2.04E-01
     9 OT SD       0.15E+00   21.0     0.22986071     -5390.6056503850  4.64E-01
    10 OT SD       0.15E+00   21.6     0.23442008     -5392.2488508820 -1.64E+00
    11 OT SD       0.15E+00   20.2     0.21585087     -5392.2420289188  6.82E-03
    12 OT SD       0.15E+00   19.0     0.24597954     -5390.1065794112  2.14E+00
    13 OT DIIS     0.15E+00   18.7     0.15536672     -5394.2131189170 -4.11E+00
    14 OT DIIS     0.15E+00   18.5     0.31474686     -5390.1738412555  4.04E+00
    15 OT DIIS     0.15E+00   18.1     0.23979174     -5387.1137057268  3.06E+00
    16 OT DIIS     0.15E+00   20.3     0.21065172     -5393.4173151293 -6.30E+00
    17 OT SD       0.15E+00   19.4     0.19148888     -5396.6048863363 -3.19E+00
    18 OT SD       0.15E+00   21.1     0.17714601     -5394.6157129693  1.99E+00
    19 OT DIIS     0.15E+00   19.1     0.26607048     -5392.1265426020  2.49E+00
    20 OT DIIS     0.15E+00   20.3     0.24835343     -5393.1176395078 -9.91E-01

  Leaving inner SCF loop after reaching    20 steps.


  Electronic density on regular grids:       -117.7509995603      -11.7509995603
  Core density on regular grids:              106.0000000000        0.0000000000
  Hard and soft densities (Lebedev):         -171.7624162739     -183.5134469900
  Total Rho_soft + Rho1_hard - Rho1_soft     -105.9999688442
  Total charge density (r-space):               0.0000311558
  Total Rho_soft + Rho0_soft (g-space):         0.0000299461

  Overlap energy of the core charge distribution:               0.06049904422023
  Self energy of the core charge distribution:              -3169.61708037129574
  Core Hamiltonian energy:                                  -2140.86909139468389
  Hartree energy:                                            1198.88620788306366
  Exchange-correlation energy:                               -171.38179556037443

  GAPW| Exc from hard and soft atomic rho1:                    30.86326166299665
  GAPW| local Eh = 1 center integrals:                      -1141.05964077175531

  Total energy:                                             -5393.11763950783006

  outer SCF iter =    2 RMS gradient =   0.25E+00 energy =      -5393.1176395078

  ----------------------------------- OT ---------------------------------------
  Minimizer      : DIIS                : direct inversion
                                         in the iterative subspace
                                         using   7 DIIS vectors
                                         safer DIIS on
  Preconditioner : FULL_ALL            : diagonalization, state selective
  Precond_solver : DEFAULT
  stepsize       :    0.15000000                  energy_gap     :    0.08000000
  eps_taylor     :   0.10000E-15                  max_taylor     :             4
  ----------------------------------- OT ---------------------------------------

  Step     Update method      Time    Convergence         Total energy    Change
  ------------------------------------------------------------------------------
     1 OT DIIS     0.15E+00   48.0     0.14176247     -5390.1864126508  2.93E+00
     2 OT DIIS     0.15E+00   19.3     0.16068939     -5393.8428346987 -3.66E+00
     3 OT DIIS     0.15E+00   19.2     0.13557063     -5398.2046577639 -4.36E+00
     4 OT DIIS     0.15E+00   19.3     0.08296072     -5401.3868718827 -3.18E+00
     5 OT DIIS     0.15E+00   19.3     0.06085116     -5402.9070507492 -1.52E+00
     6 OT DIIS     0.15E+00   21.0     0.05627664     -5403.9427510819 -1.04E+00
     7 OT DIIS     0.15E+00   20.1     0.04582082     -5405.0939881312 -1.15E+00
     8 OT DIIS     0.15E+00   21.1     0.05188975     -5406.6189285152 -1.52E+00
     9 OT DIIS     0.15E+00   22.0     0.01738133     -5407.4776273748 -8.59E-01
    10 OT DIIS     0.15E+00   18.7     0.02497753     -5408.3030556316 -8.25E-01
    11 OT DIIS     0.15E+00   18.5     0.00965905     -5410.4632996493 -2.16E+00
    12 OT DIIS     0.15E+00   21.0     0.00563874     -5411.4508906313 -9.88E-01
    13 OT DIIS     0.15E+00   18.6     0.00394639     -5414.3519503467 -2.90E+00
    14 OT DIIS     0.15E+00   20.8     0.00257847     -5416.9178570802 -2.57E+00
    15 OT DIIS     0.15E+00   19.7     0.00229201     -5419.4758509346 -2.56E+00
    16 OT DIIS     0.15E+00   21.9     0.00199975     -5424.9783898257 -5.50E+00
    17 OT DIIS     0.15E+00   19.1     0.00184039     -5429.7813758851 -4.80E+00
    18 OT DIIS     0.15E+00   20.7     0.00161177     -5440.2163924490 -1.04E+01
    19 OT DIIS     0.15E+00   19.1     0.00157394     -5448.2727576502 -8.06E+00
    20 OT DIIS     0.15E+00   20.0     0.00150309     -5463.0369135013 -1.48E+01

  Leaving inner SCF loop after reaching    20 steps.


  Electronic density on regular grids:       -114.5085075310       -8.5085075310
  Core density on regular grids:              106.0000000000        0.0000000000
  Hard and soft densities (Lebedev):         -145.8702778025     -154.3570573065
  Total Rho_soft + Rho1_hard - Rho1_soft     -106.0217280269
  Total charge density (r-space):              -0.0217280269
  Total Rho_soft + Rho0_soft (g-space):        -0.0217291999

  Overlap energy of the core charge distribution:               0.06049904422023
  Self energy of the core charge distribution:              -3169.61708037129574
  Core Hamiltonian energy:                                  -2195.48775529157956
  Hartree energy:                                            1185.98568067570409
  Exchange-correlation energy:                               -164.83594887360698

  GAPW| Exc from hard and soft atomic rho1:                    20.73661381839517
  GAPW| local Eh = 1 center integrals:                      -1139.87892250314189

  Total energy:                                             -5463.03691350130521

  outer SCF iter =    3 RMS gradient =   0.15E-02 energy =      -5463.0369135013

  ----------------------------------- OT ---------------------------------------
  Minimizer      : DIIS                : direct inversion
                                         in the iterative subspace
                                         using   7 DIIS vectors
                                         safer DIIS on
  Preconditioner : FULL_ALL            : diagonalization, state selective
  Precond_solver : DEFAULT
  stepsize       :    0.15000000                  energy_gap     :    0.08000000
  eps_taylor     :   0.10000E-15                  max_taylor     :             4
  ----------------------------------- OT ---------------------------------------

  Step     Update method      Time    Convergence         Total energy    Change
  ------------------------------------------------------------------------------
     1 OT DIIS     0.15E+00   48.1     0.23154112     -5484.6927626020 -2.17E+01
     2 OT DIIS     0.15E+00   17.8     0.11086228     -5058.6629406775  4.26E+02
     3 OT DIIS     0.15E+00   17.6     0.03019453     -5008.7792613223  4.99E+01
     4 OT DIIS     0.15E+00   17.5     0.01248502     -4999.5715954981  9.21E+00
     5 OT DIIS     0.15E+00   17.5     0.02346031     -5016.6960972355 -1.71E+01
     6 OT DIIS     0.15E+00   18.4     0.02506974     -5027.4214852502 -1.07E+01
     7 OT DIIS     0.15E+00   20.1     0.02575449     -5013.4547680623  1.40E+01
     8 OT DIIS     0.15E+00   19.2     0.01808592     -5010.6820828075  2.77E+00
     9 OT DIIS     0.15E+00   19.4     0.00502618     -5023.8429671883 -1.32E+01
    10 OT DIIS     0.15E+00   19.1     0.00463844     -5045.3577052758 -2.15E+01
    11 OT DIIS     0.15E+00   19.4     0.00473173     -5124.2857280155 -7.89E+01
    12 OT DIIS     0.15E+00   19.1     0.00392461     -5141.4363067290 -1.72E+01
    13 OT DIIS     0.15E+00   20.8     0.00391118     -5163.8058778474 -2.24E+01
    14 OT DIIS     0.15E+00   19.8     0.00387000     -5166.8220708306 -3.02E+00
    15 OT DIIS     0.15E+00   19.4     0.00386411     -5168.2919171667 -1.47E+00
    16 OT DIIS     0.15E+00   19.8     0.00377854     -5177.9451338582 -9.65E+00
    17 OT DIIS     0.15E+00   20.0     0.00373260     -5191.0343041770 -1.31E+01
    18 OT DIIS     0.15E+00   19.5     0.00366695     -5215.9923239717 -2.50E+01
    19 OT DIIS     0.15E+00   19.8     0.00365876     -5230.5049445142 -1.45E+01
    20 OT SD       0.15E+00   18.5     0.00367668     -5235.9355539823 -5.43E+00

  Leaving inner SCF loop after reaching    20 steps.


  Electronic density on regular grids:       -115.2006555443       -9.2006555443
  Core density on regular grids:              106.0000000000        0.0000000000
  Hard and soft densities (Lebedev):         -149.0927815234     -160.1872193439
  Total Rho_soft + Rho1_hard - Rho1_soft     -104.1062177238
  Total charge density (r-space):               1.8937822762
  Total Rho_soft + Rho0_soft (g-space):         1.8937810762

  Overlap energy of the core charge distribution:               0.06049904422023
  Self energy of the core charge distribution:              -3169.61708037129574
  Core Hamiltonian energy:                                  -1984.68055296507100
  Hartree energy:                                            1251.53820663682291
  Exchange-correlation energy:                               -168.35977771050636

  GAPW| Exc from hard and soft atomic rho1:                    27.77440047762128
  GAPW| local Eh = 1 center integrals:                      -1192.65124909406290

  Total energy:                                             -5235.93555398227181

  outer SCF iter =    4 RMS gradient =   0.37E-02 energy =      -5235.9355539823

  ----------------------------------- OT ---------------------------------------
  Minimizer      : DIIS                : direct inversion
                                         in the iterative subspace
                                         using   7 DIIS vectors
                                         safer DIIS on
  Preconditioner : FULL_ALL            : diagonalization, state selective
  Precond_solver : DEFAULT
  stepsize       :    0.15000000                  energy_gap     :    0.08000000
  eps_taylor     :   0.10000E-15                  max_taylor     :             4
  ----------------------------------- OT ---------------------------------------

  Step     Update method      Time    Convergence         Total energy    Change
  ------------------------------------------------------------------------------
     1 OT DIIS     0.15E+00   44.5     0.03622261     -5238.6756380150 -2.74E+00
     2 OT DIIS     0.15E+00   16.4     0.03565012     -5186.8953719362  5.18E+01
     3 OT SD       0.15E+00   16.7     0.02018183     -4339.5721285066  8.47E+02
     4 OT DIIS     0.15E+00   18.7     0.01970732     -4338.0161713293  1.56E+00
     5 OT DIIS     0.15E+00   18.0     0.01590444     -4325.9495484488  1.21E+01
     6 OT DIIS     0.15E+00   17.6     0.00998815     -4317.7305702155  8.22E+00
     7 OT DIIS     0.15E+00   20.3     0.01104820     -4372.7344858226 -5.50E+01
     8 OT DIIS     0.15E+00   18.4     0.01104895     -4368.2914953363  4.44E+00
     9 OT DIIS     0.15E+00   20.1     0.00894685     -4314.4028839290  5.39E+01
    10 OT SD       0.15E+00   19.3     0.00759082     -4296.9593671381  1.74E+01
    11 OT DIIS     0.15E+00   20.3     0.00738013     -4296.0013700145  9.58E-01
    12 OT DIIS     0.15E+00   18.6     0.00791821     -4287.1830199946  8.82E+00
    13 OT SD       0.15E+00   19.4     0.00769651     -4285.1348667321  2.05E+00
    14 OT SD       0.15E+00   19.8     0.00751702     -4284.2574721193  8.77E-01
    15 OT SD       0.15E+00   20.5     0.00753645     -4283.3778650517  8.80E-01
    16 OT SD       0.15E+00   21.9     0.00767035     -4282.4977306140  8.80E-01
    17 OT SD       0.15E+00   19.3     0.00787845     -4281.6179876269  8.80E-01
    18 OT SD       0.15E+00   20.0     0.00814221     -4280.7392346938  8.79E-01
    19 OT SD       0.15E+00   18.9     0.00845402     -4279.8619523240  8.77E-01
    20 OT SD       0.15E+00   20.9     0.00881176     -4278.9866022695  8.75E-01

  Leaving inner SCF loop after reaching    20 steps.


  Electronic density on regular grids:       -114.4778840663       -8.4778840663
  Core density on regular grids:              106.0000000000        0.0000000000
  Hard and soft densities (Lebedev):         -155.2321211745     -169.1498235317
  Total Rho_soft + Rho1_hard - Rho1_soft     -100.5601817091
  Total charge density (r-space):               5.4398182909
  Total Rho_soft + Rho0_soft (g-space):         5.4398170877

  Overlap energy of the core charge distribution:               0.06049904422023
  Self energy of the core charge distribution:              -3169.61708037129574
  Core Hamiltonian energy:                                  -1061.91029976987193
  Hartree energy:                                            1386.38509462950969
  Exchange-correlation energy:                               -167.67300697429224

  GAPW| Exc from hard and soft atomic rho1:                    38.27297375294040
  GAPW| local Eh = 1 center integrals:                      -1304.50478258069552

  Total energy:                                             -4278.98660226948505

  outer SCF iter =    5 RMS gradient =   0.88E-02 energy =      -4278.9866022695

  ----------------------------------- OT ---------------------------------------
  Minimizer      : DIIS                : direct inversion
                                         in the iterative subspace
                                         using   7 DIIS vectors
                                         safer DIIS on
  Preconditioner : FULL_ALL            : diagonalization, state selective
  Precond_solver : DEFAULT
  stepsize       :    0.15000000                  energy_gap     :    0.08000000
  eps_taylor     :   0.10000E-15                  max_taylor     :             4
  ----------------------------------- OT ---------------------------------------

  Step     Update method      Time    Convergence         Total energy    Change
  ------------------------------------------------------------------------------
     1 OT DIIS     0.15E+00   46.0     0.05511721     -4278.1136800305  8.73E-01
     2 OT DIIS     0.15E+00   15.9     0.05391023     -4269.3231896540  8.79E+00
     3 OT DIIS     0.15E+00   16.9     0.05102127     -4231.3680547713  3.80E+01
     4 OT DIIS     0.15E+00   17.9     0.05083907     -4214.0165875330  1.74E+01
     5 OT SD       0.15E+00   18.2     0.05084643     -4213.8776377186  1.39E-01
     6 OT SD       0.15E+00   17.7     0.05107931     -4208.2397412906  5.64E+00
     7 OT DIIS     0.15E+00   17.2     0.05144097     -4203.1035769259  5.14E+00
     8 OT SD       0.15E+00   18.1     0.05199504     -4210.5521449599 -7.45E+00
     9 OT SD       0.15E+00   17.3     0.05176421     -4205.4866918591  5.07E+00
    10 OT SD       0.15E+00   18.0     0.05212551     -4200.8835828502  4.60E+00
    11 OT DIIS     0.15E+00   18.2     0.05267395     -4196.7704673163  4.11E+00
    12 OT SD       0.15E+00   18.3     0.05298085     -4221.4485455998 -2.47E+01
    13 OT SD       0.15E+00   17.3     0.05284329     -4216.3281995555  5.12E+00
    14 OT SD       0.15E+00   18.2     0.05302981     -4211.6301152749  4.70E+00
    15 OT DIIS     0.15E+00   19.0     0.05340299     -4207.3810485473  4.25E+00
    16 OT SD       0.15E+00   18.3     0.05406538     -4224.9517485900 -1.76E+01
    17 OT SD       0.15E+00   18.5     0.05343641     -4220.0251759730  4.93E+00
    18 OT SD       0.15E+00   16.9     0.05356386     -4215.4720904787  4.55E+00
    19 OT DIIS     0.15E+00   18.3     0.05391548     -4211.3471490351  4.12E+00
    20 OT SD       0.15E+00   18.2     0.05359144     -4233.0944394645 -2.17E+01

  Leaving inner SCF loop after reaching    20 steps.


  Electronic density on regular grids:       -117.3386204256      -11.3386204256
  Core density on regular grids:              106.0000000000        0.0000000000
  Hard and soft densities (Lebedev):         -156.3371960041     -173.5028362272
  Total Rho_soft + Rho1_hard - Rho1_soft     -100.1729802026
  Total charge density (r-space):               5.8270197974
  Total Rho_soft + Rho0_soft (g-space):         5.8270185593

  Overlap energy of the core charge distribution:               0.06049904422023
  Self energy of the core charge distribution:              -3169.61708037129574
  Core Hamiltonian energy:                                  -1025.24027694067581
  Hartree energy:                                            1398.59247218781229
  Exchange-correlation energy:                               -175.76265793604995

  GAPW| Exc from hard and soft atomic rho1:                    47.84987095792998
  GAPW| local Eh = 1 center integrals:                      -1308.97726640644669

  Total energy:                                             -4233.09443946450665

  outer SCF iter =    6 RMS gradient =   0.54E-01 energy =      -4233.0944394645

  ----------------------------------- OT ---------------------------------------
  Minimizer      : DIIS                : direct inversion
                                         in the iterative subspace
                                         using   7 DIIS vectors
                                         safer DIIS on
  Preconditioner : FULL_ALL            : diagonalization, state selective
  Precond_solver : DEFAULT
  stepsize       :    0.15000000                  energy_gap     :    0.08000000
  eps_taylor     :   0.10000E-15                  max_taylor     :             4
  ----------------------------------- OT ---------------------------------------

  Step     Update method      Time    Convergence         Total energy    Change
  ------------------------------------------------------------------------------
     1 OT DIIS     0.15E+00   44.1     0.27341059     -4227.9082655500  5.19E+00
     2 OT DIIS     0.15E+00   17.8     0.22867146     -4188.1629514438  3.97E+01
     3 OT DIIS     0.15E+00   17.5     0.15886389     -4110.1501430507  7.80E+01
     4 OT DIIS     0.15E+00   17.2     0.09808728     -4079.7503956140  3.04E+01
     5 OT DIIS     0.15E+00   17.7     0.08325368     -4095.9155049292 -1.62E+01
     6 OT DIIS     0.15E+00   17.8     0.07493106     -4106.6335109814 -1.07E+01
     7 OT DIIS     0.15E+00   17.8     0.05876587     -4087.3802947776  1.93E+01
     8 OT DIIS     0.15E+00   17.5     0.05240792     -4080.6310292364  6.75E+00
     9 OT SD       0.15E+00   18.0     0.06314857     -4071.3170706387  9.31E+00
    10 OT SD       0.15E+00   18.4     0.06266922     -4070.3272426525  9.90E-01
    11 OT SD       0.15E+00   17.5     0.06365868     -4069.9787828447  3.48E-01
    12 OT SD       0.15E+00   17.9     0.06581154     -4070.0790688228 -1.00E-01
    13 OT SD       0.15E+00   18.4     0.06912019     -4070.5318847285 -4.53E-01
    14 OT SD       0.15E+00   17.2     0.07374506     -4071.3007763181 -7.69E-01
    15 OT SD       0.15E+00   18.4     0.08000575     -4072.4016484027 -1.10E+00
    16 OT SD       0.15E+00   18.7     0.08841854     -4073.9179543096 -1.52E+00
    17 OT SD       0.15E+00   17.4     0.09976383     -4076.0430438379 -2.13E+00
    18 OT SD       0.15E+00   18.3     0.11516238     -4079.1681105044 -3.13E+00
    19 OT SD       0.15E+00   18.1     0.13606548     -4084.0536745594 -4.89E+00
    20 OT SD       0.15E+00   18.8     0.16380302     -4092.1348636538 -8.08E+00

  Leaving inner SCF loop after reaching    20 steps.


  Electronic density on regular grids:       -118.2758707239      -12.2758707239
  Core density on regular grids:              106.0000000000        0.0000000000
  Hard and soft densities (Lebedev):         -164.0623113550     -181.0148332737
  Total Rho_soft + Rho1_hard - Rho1_soft     -101.3233488052
  Total charge density (r-space):               4.6766511948
  Total Rho_soft + Rho0_soft (g-space):         4.6766499580

  Overlap energy of the core charge distribution:               0.06049904422023
  Self energy of the core charge distribution:              -3169.61708037129574
  Core Hamiltonian energy:                                   -888.96527204278289
  Hartree energy:                                            1435.17991559772554
  Exchange-correlation energy:                               -174.29049883539645

  GAPW| Exc from hard and soft atomic rho1:                    46.77685016521029
  GAPW| local Eh = 1 center integrals:                      -1341.27927721143897

  Total energy:                                             -4092.13486365375820

  outer SCF iter =    7 RMS gradient =   0.16E+00 energy =      -4092.1348636538

  ----------------------------------- OT ---------------------------------------
  Minimizer      : DIIS                : direct inversion
                                         in the iterative subspace
                                         using   7 DIIS vectors
                                         safer DIIS on
  Preconditioner : FULL_ALL            : diagonalization, state selective
  Precond_solver : DEFAULT
  stepsize       :    0.15000000                  energy_gap     :    0.08000000
  eps_taylor     :   0.10000E-15                  max_taylor     :             4
  ----------------------------------- OT ---------------------------------------

  Step     Update method      Time    Convergence         Total energy    Change
  ------------------------------------------------------------------------------
     1 OT DIIS     0.15E+00   46.2     0.26172211     -4105.9079515177 -1.38E+01
     2 OT SD       0.15E+00   18.4     0.33083434     -4154.6447153511 -4.87E+01
     3 OT DIIS     0.15E+00   18.1     0.08058038     -4189.9643390903 -3.53E+01
     4 OT DIIS     0.15E+00   18.3     0.10893318     -4180.8544188824  9.11E+00
     5 OT DIIS     0.15E+00   17.6     0.05670906     -4159.6135986442  2.12E+01
     6 OT DIIS     0.15E+00   17.9     0.06837786     -4154.2902126766  5.32E+00
     7 OT DIIS     0.15E+00   17.8     0.06006704     -4138.9685245836  1.53E+01
     8 OT SD       0.15E+00   17.8     0.08283653     -4125.3908617621  1.36E+01
     9 OT DIIS     0.15E+00   17.8     0.05878456     -4125.8314925403 -4.41E-01
    10 OT DIIS     0.15E+00   17.5     0.05023457     -4125.7231848976  1.08E-01
    11 OT DIIS     0.15E+00   18.4     0.05014837     -4124.2855762941  1.44E+00
    12 OT DIIS     0.15E+00   18.5     0.04966672     -4121.9598445301  2.33E+00
    13 OT DIIS     0.15E+00   19.4     0.04862710     -4120.4048986969  1.55E+00
    14 OT SD       0.15E+00   17.9     0.04632885     -4119.2179679307  1.19E+00
    15 OT SD       0.15E+00   18.9     0.04579259     -4118.3300208991  8.88E-01
    16 OT DIIS     0.15E+00   18.8     0.04573464     -4117.8678348820  4.62E-01
    17 OT DIIS     0.15E+00   17.6     0.04487450     -4112.7803754201  5.09E+00
    18 OT DIIS     0.15E+00   19.3     0.04457752     -4112.0353856747  7.45E-01
    19 OT DIIS     0.15E+00   18.5     0.04438126     -4111.4501116196  5.85E-01
    20 OT SD       0.15E+00   17.9     0.04475429     -4114.3450753653 -2.89E+00

  Leaving inner SCF loop after reaching    20 steps.


  Electronic density on regular grids:       -116.6780854520      -10.6780854520
  Core density on regular grids:              106.0000000000        0.0000000000
  Hard and soft densities (Lebedev):         -165.6586235529     -181.3244583504
  Total Rho_soft + Rho1_hard - Rho1_soft     -101.0122506545
  Total charge density (r-space):               4.9877493455
  Total Rho_soft + Rho0_soft (g-space):         4.9877481234

  Overlap energy of the core charge distribution:               0.06049904422023
  Self energy of the core charge distribution:              -3169.61708037129574
  Core Hamiltonian energy:                                   -910.01380364118847
  Hartree energy:                                            1413.33220578737019
  Exchange-correlation energy:                               -170.99528547609475

  GAPW| Exc from hard and soft atomic rho1:                    43.23909589652044
  GAPW| local Eh = 1 center integrals:                      -1320.35070660480051

  Total energy:                                             -4114.34507536526871

  outer SCF iter =    8 RMS gradient =   0.45E-01 energy =      -4114.3450753653

  ----------------------------------- OT ---------------------------------------
  Minimizer      : DIIS                : direct inversion
[...]

 !-----------------------------------------------------------------------------!

 !-----------------------------------------------------------------------------!
                           Hirshfeld Charges

  #Atom  Element  Kind  Ref Charge     Population                    Net charge
      1       I      1       7.000          7.000                         0.000
      2       I      1       7.000          7.000                         0.000

  Total Charge                                                            0.000
 !-----------------------------------------------------------------------------!

 ENERGY| Total FORCE_EVAL ( QS ) energy [a.u.]:              -22.870125324071193

 -------------------------------------------------------------------------------
 -                                                                             -
 -                                DBCSR STATISTICS                             -
 -                                                                             -
 -------------------------------------------------------------------------------
 COUNTER                                    TOTAL       BLAS       SMM       ACC
 flops     7 x     7 x     7               506954       0.0%    100.0%      0.0%
 flops     7 x     7 x    17              1122884       0.0%    100.0%      0.0%
 flops    17 x    17 x     7              1177386       0.0%    100.0%      0.0%
 flops    17 x     7 x     7              1396108       0.0%    100.0%      0.0%
 flops    17 x     7 x    17              6910568       0.0%    100.0%      0.0%
 flops inhomo. stacks                           0       0.0%      0.0%      0.0%
 flops total                        11.113900E+06       0.0%    100.0%      0.0%
 flops max/rank                      6.175638E+06       0.0%    100.0%      0.0%
 matmuls inhomo. stacks                         0       0.0%      0.0%      0.0%
 matmuls total                               4250       0.0%    100.0%      0.0%
 number of processed stacks                  4250       0.0%    100.0%      0.0%
 average stack size                                     0.0       1.0       0.0
 marketing flops                    11.536351E+06
 -------------------------------------------------------------------------------
 # multiplications                           2028
 max memory usage/rank             619.700224E+06
 # max total images/rank                        1
 # max 3D layers                                1
 # MPI messages exchanged                 1817088
 MPI messages size (bytes):
  total size                        55.691832E+06
  min size                           0.000000E+00
  max size                           2.312000E+03
  average size                      30.648947E+00
 MPI breakdown and total messages size (bytes):
             size <=      128             1767857                        0
       128 < size <=     8192               49231                 55691832
      8192 < size <=    32768                   0                        0
     32768 < size <=   131072                   0                        0
    131072 < size <=  4194304                   0                        0
   4194304 < size <= 16777216                   0                        0
  16777216 < size                               0                        0
 -------------------------------------------------------------------------------
 -                                                                             -
 -                      DBCSR MESSAGE PASSING PERFORMANCE                      -
 -                                                                             -
 -------------------------------------------------------------------------------
 ROUTINE             CALLS      AVE VOLUME [Bytes]
 MP_Bcast                6                     12.
 MP_Allreduce        10577                      8.
 MP_Alltoall          7965                   5676.
 MP_ISend            64860                    142.
 MP_IRecv            64860                     89.
 -------------------------------------------------------------------------------

 -------------------------------------------------------------------------------
 -                                                                             -
 -                                DBM STATISTICS                               -
 -                                                                             -
 -------------------------------------------------------------------------------
    M  x    N  x    K                                          COUNT     PERCENT
 -------------------------------------------------------------------------------

 -------------------------------------------------------------------------------
 -                                                                             -
 -                                GRID STATISTICS                              -
 -                                                                             -
 -------------------------------------------------------------------------------
 LP    KERNEL             BACKEND                              COUNT     PERCENT
 4     collocate ortho    CPU                                   4320      49.92%
 4     integrate ortho    CPU                                   3936      45.48%
 5     integrate ortho    CPU                                    336       3.88%
 0     collocate general  CPU                                     32       0.37%
 0     integrate general  CPU                                     16       0.18%
 1     integrate general  CPU                                     14       0.16%
 -------------------------------------------------------------------------------

 MEMORY| Estimated peak process memory [MiB]                                 592

 -------------------------------------------------------------------------------
 ----                             MULTIGRID INFO                            ----
 -------------------------------------------------------------------------------
 count for grid        1:              0          cutoff [a.u.]          600.00
 count for grid        2:          47112          cutoff [a.u.]          200.00
 count for grid        3:         145816          cutoff [a.u.]           66.67
 count for grid        4:          49352          cutoff [a.u.]           22.22
 count for grid        5:          17944          cutoff [a.u.]            7.41
 total gridlevel count  :         260224

 -------------------------------------------------------------------------------
 -                                                                             -
 -                         MESSAGE PASSING PERFORMANCE                         -
 -                                                                             -
 -------------------------------------------------------------------------------

 ROUTINE             CALLS      AVE VOLUME [Bytes]
 MP_Group                6
 MP_Bcast              714                 228964.
 MP_Allreduce         2642                    508.
 MP_Sync                59
 MP_Alltoall          2246                3091292.
 MP_SendRecv         29358                 215382.
 MP_ISendRecv        28980                 214377.
 MP_Wait             28980
 MP_comm_split          54
 -------------------------------------------------------------------------------


 -------------------------------------------------------------------------------
 -                                                                             -
 -                           R E F E R E N C E S                               -
 -                                                                             -
 -------------------------------------------------------------------------------
 
 CP2K version 2023.2 (Development Version), the CP2K developers group (2023).
 CP2K is freely available from https://www.cp2k.org/ .

 Kuehne,Thomas D.; Iannuzzi,Marcella; Del Ben,Mauro;
 Rybkin,Vladimir V.; Seewald,Patrick; Stein,Frederick; Laino,Teodoro;
 Khaliullin,Rustam Z.; Schuett,Ole; Schiffmann,Florian; Golze,Dorothea;
 Wilhelm,Jan; Chulkov,Sergey; Bani-Hashemian,Mohammad Hossein;
 Weber,Valery; Borstnik,Urban; Taillefumier,Mathieu;
 Jakobovits,Alice Shoshana; Lazzaro,Alfio; Pabst,Hans; Mueller,Tiziano;
 Schade,Robert; Guidon,Manuel; Andermatt,Samuel; Holmberg,Nico;
 Schenter,Gregory K.; Hehn,Anna; Bussy,Augustin; Belleflamme,Fabian;
 Tabacchi,Gloria; Gloess,Andreas; Lass,Michael; Bethune,Iain;
 Mundy,Christopher J.; Plessl,Christian; Watkins,Matt;
 VandeVondele,Joost; Krack,Matthias; Hutter,Juerg. 
 The Journal of Chemical Physics, 152 (19), (2020). 
 CP2K: An electronic structure and molecular dynamics software package -
 Quickstep: Efficient and accurate electronic structure calculations.
 https://doi.org/10.1063/5.0007045

 Schuett, Ole; Messmer, Peter; Hutter, Juerg; VandeVondele, Joost. 
 Electronic Structure Calculations on Graphics Processing Units, John
 Wiley & Sons, Ltd, 173-190 (2016). 
 GPU-Accelerated Sparse Matrix-Matrix Multiplication for
 Linear Scaling Density Functional Theory.
 https://doi.org/10.1002/9781118670712.ch8

 Heinecke, A; Henry, G; Hutchinson, M; Pabst, H. 
 Proceedings of Intl. Supercomputing Conference, 981-991 (2016). 
 LIBXSMM: Accelerating Small Matrix Multiplications
 by Runtime Code Generation.
 https://doi.org/10.1109/SC.2016.83

 Borstnik, U; VandeVondele, J; Weber, V; Hutter, J. 
 PARALLEL COMPUTING, 40 (5-6), 47-58 (2014). 
 Sparse matrix multiplication: The distributed block-compressed sparse
 row library.
 https://doi.org/10.1016/j.parco.2014.03.012

 Hutter, J; Iannuzzi, M; Schiffmann, F; VandeVondele, J. 
 WIREs Comput Mol Sci., 4 (1), 15-25 (2014). 
 CP2K: atomistic simulations of condensed matter systems.
 https://doi.org/10.1002/wcms.1159

 VandeVondele, J; Hutter, J. 
 JOURNAL OF CHEMICAL PHYSICS, 127 (11), 114105 (2007). 
 Gaussian basis sets for accurate calculations on molecular systems in
 gas and condensed phases.
 https://doi.org/10.1063/1.2770708

 Kuhne, TD; Krack, M; Mohamed, FR; Parrinello, M. 
 PHYSICAL REVIEW LETTERS, 98 (6), 066401 (2007). 
 Efficient and accurate Car-Parrinello-like approach to
 Born-Oppenheimer molecular dynamics.
 https://doi.org/10.1103/PhysRevLett.98.066401

 Krack, M. 
 THEORETICAL CHEMISTRY ACCOUNTS, 114 (1-3), 145-152 (2005). 
 Pseudopotentials for H to Kr optimized for gradient-corrected
 exchange-correlation functionals.
 https://doi.org/10.1007/s00214-005-0655-y

 VandeVondele, J; Krack, M; Mohamed, F; Parrinello, M; Chassaing, T;
 Hutter, J. COMPUTER PHYSICS COMMUNICATIONS, 167 (2), 103-128 (2005). 
 QUICKSTEP: Fast and accurate density functional calculations using a
 mixed Gaussian and plane waves approach.
 https://doi.org/10.1016/j.cpc.2004.12.014

 Frigo, M; Johnson, SG. 
 PROCEEDINGS OF THE IEEE, 93 (2), 216-231 (2005). 
 The design and implementation of FFTW3.
 https://doi.org/10.1109/JPROC.2004.840301

 Kolafa, J. 
 JOURNAL OF COMPUTATIONAL CHEMISTRY, 25 (3), 335-342 (2004). 
 Time-reversible always stable predictor-corrector method for
 molecular dynamics of polarizable molecules.
 https://doi.org/10.1002/jcc.10385

 VandeVondele, J; Hutter, J. 
 JOURNAL OF CHEMICAL PHYSICS, 118 (10), 4365-4369 (2003). 
 An efficient orbital transformation method for electronic structure
 calculations.
 https://doi.org/10.1063/1.1543154

 Martyna, GJ; Tuckerman, ME. 
 JOURNAL OF CHEMICAL PHYSICS, 110 (6), 2810-2821 (1999). 
 A reciprocal space based method for treating long range interactions in
 ab initio and force-field-based calculations in clusters.
 https://doi.org/10.1063/1.477923

 Hartwigsen, C; Goedecker, S; Hutter, J. 
 PHYSICAL REVIEW B, 58 (7), 3641-3662 (1998). 
 Relativistic separable dual-space Gaussian pseudopotentials from H to Rn.
 https://doi.org/10.1103/PhysRevB.58.3641

 Lippert, G; Hutter, J; Parrinello, M. 
 MOLECULAR PHYSICS, 92 (3), 477-487 (1997). 
 A hybrid Gaussian and plane wave density functional scheme.
 https://doi.org/10.1080/002689797170220

 Perdew, JP; Burke, K; Ernzerhof, M. 
 PHYSICAL REVIEW LETTERS, 77 (18), 3865-3868 (1996). 
 Generalized gradient approximation made simple.
 https://doi.org/10.1103/PhysRevLett.77.3865

 Goedecker, S; Teter, M; Hutter, J. 
 PHYSICAL REVIEW B, 54 (3), 1703-1710 (1996). 
 Separable dual-space Gaussian pseudopotentials.
 https://doi.org/10.1103/PhysRevB.54.1703


 -------------------------------------------------------------------------------
 -                                                                             -
 -                                T I M I N G                                  -
 -                                                                             -
 -------------------------------------------------------------------------------
 SUBROUTINE                       CALLS  ASD         SELF TIME        TOTAL TIME
                                MAXIMUM       AVERAGE  MAXIMUM  AVERAGE  MAXIMUM
 CP2K                                 1  1.0    0.055    0.103 1529.783 1529.804
 cp_geo_opt                           1  2.0    0.000    0.000 1521.486 1521.491
 geoopt_bfgs                          1  3.0    0.006    0.026 1521.486 1521.490
 cp_eval_at                           8  4.0    0.001    0.012 1497.096 1497.148
 qs_energies                          8  5.9    0.006    0.020 1479.191 1479.353
 scf_env_do_scf                       8  6.9    0.001    0.010 1415.678 1415.751
 qs_forces                            7  5.0    0.009    0.038 1388.456 1388.509
 scf_env_do_scf_inner_loop           82  7.9    0.004    0.025 1303.437 1303.529
 qs_scf_new_mos                      82  8.9    0.001    0.013 1056.933 1057.802
 qs_scf_loop_do_ot                   82  9.9    0.000    0.001 1056.933 1057.801
 dbcsr_multiply_generic            2028 14.0    0.212    0.402 1019.886 1024.343
 ot_scf_mini                         82 10.9    0.001    0.012 1010.855 1011.672
 ot_mini                             82 11.9    0.002    0.020  725.455  726.515
 qs_ot_get_derivative                82 12.9    0.001    0.011  607.588  608.345
 multiply_cannon                   2028 15.0    5.708    6.338  412.359  425.904
 mp_sum_l                         10083 14.5  373.603  382.680  373.603  382.680
 multiply_cannon_loop              2028 16.0    0.553    0.770  342.161  354.094
 qs_ot_get_derivative_taylor         63 13.9    0.002    0.002  343.404  344.585
 multiply_cannon_multrec          16224 17.0  273.834  320.808  273.842  320.815
 qs_ot_get_p                         91 11.7    0.001    0.013  178.097  178.850
 rebuild_ks_matrix                   89  9.7    0.000    0.000  172.008  172.817
 qs_ks_build_kohn_sham_matrix        89 10.7    0.022    0.044  172.008  172.817
 make_m2s                          4056 15.0    0.039    0.049  153.763  162.781
 qs_ks_update_qs_env                 91  8.9    0.001    0.001  161.946  162.600
 make_images                       4056 16.0   11.634   12.426  152.533  159.794
 pw_transfer                       1884 13.8    0.096    0.123  143.343  144.117
 fft_wrap_pw1pw2                   1706 15.0    0.008    0.018  142.952  143.592
 make_images_sizes                 4056 17.0    0.005    0.015  140.078  143.262
 mp_alltoall_i44                   4056 18.0  140.074  143.259  140.074  143.259
 fft3d_ps                          1706 17.0    6.078    7.085  140.732  141.403
 mp_waitall_1                    191220 17.9   89.795  129.656   89.795  129.656
 init_scf_loop                        9  7.9    0.000    0.010  109.514  109.688
 ot_diis_step                        82 12.9    0.012    0.041  109.495  109.639
 qs_ot_get_derivative_diag           19 14.0    0.000    0.007  104.837  105.221
 apply_preconditioner_dbcsr          91 13.9    0.000    0.000   93.287   94.003
 apply_all                           91 14.9    0.001    0.001   93.287   94.003
 mp_alltoall_z22v                  1706 19.0   89.789   92.228   89.789   92.228
 qs_ot_get_orbitals                  82 11.9    0.000    0.000   84.492   85.160
 qs_rho_update_rho_low               90  9.0    0.003    0.024   80.471   82.728
 calculate_rho_elec                  90 10.0    0.204    0.281   80.467   82.728
 fft_wrap_pw1pw2_600                989 16.4    0.939    1.068   78.788   79.361
 multiply_cannon_metrocomm1       16224 17.0    0.037    0.056   42.234   77.549
 prepare_preconditioner               9  8.9    0.000    0.000   76.622   76.826
 density_rs2pw                       90 11.0    0.005    0.005   72.410   75.176
 mp_sum_b                          3566 15.3   71.981   73.324   71.981   73.324
 mp_sum_d                          2205 11.7   66.646   70.636   66.646   70.636
 sum_up_and_integrate                89 11.7    0.001    0.001   67.578   68.101
 integrate_v_rspace                  89 12.7    0.020    0.080   67.515   68.034
 potential_pw2rs                     89 13.7    0.007    0.018   67.331   67.579
 mp_allgather_i34                  2028 16.0   63.850   67.061   63.850   67.061
 dbcsr_complete_redistribute        315 13.1    0.017    0.056   62.463   64.529
 copy_dbcsr_to_fm                   163 12.0    0.002    0.013   62.652   63.208
 qs_vxc_create                       89 11.7    0.004    0.022   56.520   56.736
 xc_vxc_pw_create                    89 12.7    0.226    0.272   56.516   56.734
 qs_ot_p2m_taylor                    71 12.6    0.001    0.001   55.005   55.669
 calculate_dm_sparse                 90 10.8    0.000    0.000   51.459   51.863
 make_preconditioner                  9  9.9    0.000    0.011   51.006   51.173
 x_to_yz                            624 18.3    2.060    2.390   46.096   46.759
 cp_dbcsr_sm_fm_multiply             47 10.9    0.001    0.001   45.635   46.574
 init_scf_run                         8  6.9    0.000    0.010   45.880   45.976
 scf_env_initial_rho_setup            8  7.9    0.000    0.001   45.879   45.976
 multiply_cannon_metrocomm3       16224 17.0    0.037    0.055   25.405   45.676
 xc_pw_derive                       534 14.7    0.003    0.003   43.654   44.463
 subspace_eigenvalues_ks_dbcsr       18 10.4    0.000    0.000   41.734   41.940
 mp_alltoall_z11v                   537 18.3   39.767   41.239   39.767   41.239
 dbcsr_dot_sd                       898 13.4    0.002    0.012   38.991   40.476
 yz_to_x                            545 18.2    0.261    0.305   37.782   39.001
 qs_ot_p2m_diag                      20 13.0    0.002    0.034   37.571   38.158
 wfi_extrapolate                      8  8.9    0.001    0.013   37.858   37.906
 arnoldi_extremal                    91 12.7    0.001    0.001   34.772   36.818
 arnoldi_normal_ev                   91 13.7    0.002    0.019   34.770   36.816
 mp_alltoall_d11v                  1815 15.0   33.799   35.622   33.799   35.622
 mp_alltoall_i22                    605 14.7   32.471   35.162   32.471   35.162
 transfer_rs2pw                     466 11.9    0.004    0.012   31.648   34.083
 cp_dbcsr_syevd                      38 12.8    0.004    0.015   32.647   33.357
 transfer_rs2pw_600                 106 12.7    3.915    4.311   30.164   32.566
 cp_fm_write_unformatted             15  8.5   31.794   32.297   31.794   32.297
 dbcsr_new_transposed               758 15.0    0.006    0.025   30.275   31.096
 -------------------------------------------------------------------------------

 The number of warnings for this run is : 0
 
 -------------------------------------------------------------------------------
  **** **** ******  **  PROGRAM ENDED AT                 2023-12-07 11:29:35.072
 ***** ** ***  *** **   PROGRAM RAN ON                               nesh-clk431
 **    ****   ******    PROGRAM RAN BY                                  suphc355
 ***** **    ** ** **   PROGRAM PROCESS ID                                 79137
  **** **  *******  **  PROGRAM STOPPED IN /gxfs_work/cau/suphc355/homologes/X2/
                                           opt/I
