       2
 i =        1, E =     -2574.3636643673
 Br         3.3338478358        3.9999999944        4.0000000082
  H         4.6661521861        4.0000000056        3.9999999918
       2
 i =        2, E =     -2574.3664300806
 Br         3.3192966107        3.9999999915        4.0000000125
  H         4.6807035263        4.0000000085        3.9999999875
       2
 i =        3, E =     -2574.3688065774
 Br         3.2919297588        3.9999999834        4.0000000243
  H         4.7080701408        4.0000000166        3.9999999757
       2
 i =        4, E =     -2574.3689102626
 Br         3.2855852554        3.9999999809        4.0000000278
  H         4.7144148304        4.0000000191        3.9999999722
       2
 i =        5, E =     -2574.3689130656
 Br         3.2843776774        3.9999999804        4.0000000286
  H         4.7156222835        4.0000000195        3.9999999715
       2
 i =        6, E =     -2574.3689131087
 Br         3.2843776774        3.9999999804        4.0000000286
  H         4.7156222835        4.0000000195        3.9999999715
