 DBCSR| CPU Multiplication driver                                           XSMM (U)
 DBCSR| Multrec recursion limit                                              512 (U)
 DBCSR| Multiplication stack size                                           1000 (D)
 DBCSR| Maximum elements for images                                    UNLIMITED (U)
 DBCSR| Multiplicative factor virtual images                                   1 (U)
 DBCSR| Use multiplication densification                                       T (D)
 DBCSR| Multiplication size stacks                                             3 (U)
 DBCSR| Use memory pool for CPU allocation                                     F (U)
 DBCSR| Number of 3D layers                                               SINGLE (U)
 DBCSR| Use MPI memory allocation                                              F (U)
 DBCSR| Use RMA algorithm                                                      F (U)
 DBCSR| Use Communication thread                                               T (U)
 DBCSR| Communication thread load                                             83 (D)
 DBCSR| MPI: My process id                                                     0
 DBCSR| MPI: Number of processes                                              64
 DBCSR| OMP: Current number of threads                                         2
 DBCSR| OMP: Max number of threads                                             2
 DBCSR| Split modifier for TAS multiplication algorithm                  1.0E+00 (U)


  **** **** ******  **  PROGRAM STARTED AT               2023-12-05 17:27:34.691
 ***** ** ***  *** **   PROGRAM STARTED ON                           nesh-clk518
 **    ****   ******    PROGRAM STARTED BY                              suphc355
 ***** **    ** ** **   PROGRAM PROCESS ID                                900455
  **** **  *******  **  PROGRAM STARTED IN /gxfs_work/cau/suphc355/homologes/HX/
                                           opt/Br

 CP2K| version string:                 CP2K version 2023.2 (Development Version)
 CP2K| source code revision number:                                  git:845a3ae
 CP2K| cp2kflags: omp libint fftw3 libxc parallel mpi_f08 scalapack cosma xsmm s
 CP2K|            pglib mkl
 CP2K| is freely available from                            https://www.cp2k.org/
 CP2K| Program compiled at                           Fr 1. Dez 12:58:35 CET 2023
 CP2K| Program compiled on                                           nesh-login3
 CP2K| Program compiled for                                                local
 CP2K| Data directory path            /gxfs_home/cau/suphc355/software/cp2k/data
 CP2K| Input file name                                                   opt.inp
 
 GLOBAL| Force Environment number                                              1
 GLOBAL| Basis set file name                                   ../../../basis_ae
 GLOBAL| Potential file name                                           POTENTIAL
 GLOBAL| MM Potential file name                                     MM_POTENTIAL
 GLOBAL| Coordinate file name                                          start.xyz
 GLOBAL| Method name                                                        CP2K
 GLOBAL| Project name                                                    HBr_opt
 GLOBAL| Run type                                                        GEO_OPT
 GLOBAL| FFT library                                                       FFTW3
 GLOBAL| Diagonalization library                                       ScaLAPACK
 GLOBAL| DGEMM library                                                      BLAS
 GLOBAL| Orthonormality check for eigenvectors                          DISABLED
 GLOBAL| Matrix multiplication library                                     COSMA
 GLOBAL| All-to-all communication in single precision                          F
 GLOBAL| FFTs using library dependent lengths                                  F
 GLOBAL| Grid backend                                                       AUTO
 GLOBAL| Global print level                                               MEDIUM
 GLOBAL| MPI I/O enabled                                                       T
 GLOBAL| Total number of message passing processes                            64
 GLOBAL| Number of threads for this process                                    2
 GLOBAL| This output is from process                                           0
 GLOBAL| Stack size for threads created by OpenMP (OMP_STACKSIZE)        default
 GLOBAL| CPU model name                Intel(R) Xeon(R) Gold 6226R CPU @ 2.90GHz
 GLOBAL| CPUID                                                              1003

 MEMORY| system memory details [Kb]
 MEMORY|                        rank 0           min           max       average
 MEMORY| MemTotal            196683180     196683180     196683224     196683202
 MEMORY| MemFree             177614544     177614544     177762944     177688744
 MEMORY| Buffers                180752        180752        194208        187480
 MEMORY| Cached                 990720        836360        990720        913540
 MEMORY| Slab                   509860        478200        509860        494030
 MEMORY| SReclaimable           163280        131996        163280        147638
 MEMORY| MemLikelyFree       178949296     178925508     178949296     178937402


 *** Fundamental physical constants (SI units) ***

 *** Literature: B. J. Mohr and B. N. Taylor,
 ***             CODATA recommended values of the fundamental physical
 ***             constants: 2006, Web Version 5.1
 ***             http://physics.nist.gov/constants

 Speed of light in vacuum [m/s]                             2.99792458000000E+08
 Magnetic constant or permeability of vacuum [N/A**2]       1.25663706143592E-06
 Electric constant or permittivity of vacuum [F/m]          8.85418781762039E-12
 Planck constant (h) [J*s]                                  6.62606896000000E-34
 Planck constant (h-bar) [J*s]                              1.05457162825177E-34
 Elementary charge [C]                                      1.60217648700000E-19
 Electron mass [kg]                                         9.10938215000000E-31
 Electron g factor [ ]                                     -2.00231930436220E+00
 Proton mass [kg]                                           1.67262163700000E-27
 Fine-structure constant                                    7.29735253760000E-03
 Rydberg constant [1/m]                                     1.09737315685270E+07
 Avogadro constant [1/mol]                                  6.02214179000000E+23
 Boltzmann constant [J/K]                                   1.38065040000000E-23
 Atomic mass unit [kg]                                      1.66053878200000E-27
 Bohr radius [m]                                            5.29177208590000E-11

 *** Conversion factors ***

 [u] -> [a.u.]                                              1.82288848426455E+03
 [Angstrom] -> [Bohr] = [a.u.]                              1.88972613288564E+00
 [a.u.] = [Bohr] -> [Angstrom]                              5.29177208590000E-01
 [a.u.] -> [s]                                              2.41888432650478E-17
 [a.u.] -> [fs]                                             2.41888432650478E-02
 [a.u.] -> [J]                                              4.35974393937059E-18
 [a.u.] -> [N]                                              8.23872205491840E-08
 [a.u.] -> [K]                                              3.15774647902944E+05
 [a.u.] -> [kJ/mol]                                         2.62549961709828E+03
 [a.u.] -> [kcal/mol]                                       6.27509468713739E+02
 [a.u.] -> [Pa]                                             2.94210107994716E+13
 [a.u.] -> [bar]                                            2.94210107994716E+08
 [a.u.] -> [atm]                                            2.90362800883016E+08
 [a.u.] -> [eV]                                             2.72113838565563E+01
 [a.u.] -> [Hz]                                             6.57968392072181E+15
 [a.u.] -> [1/cm] (wave numbers)                            2.19474631370540E+05
 [a.u./Bohr**2] -> [1/cm]                                   5.14048714338585E+03
 

 CELL_TOP| Volume [angstrom^3]:                                       512.000000
 CELL_TOP| Vector a [angstrom     8.000     0.000     0.000   |a| =     8.000000
 CELL_TOP| Vector b [angstrom     0.000     8.000     0.000   |b| =     8.000000
 CELL_TOP| Vector c [angstrom     0.000     0.000     8.000   |c| =     8.000000
 CELL_TOP| Angle (b,c), alpha [degree]:                                90.000000
 CELL_TOP| Angle (a,c), beta  [degree]:                                90.000000
 CELL_TOP| Angle (a,b), gamma [degree]:                                90.000000
 CELL_TOP| Numerically orthorhombic:                                         YES
 CELL_TOP| Periodicity                                                      NONE
 
 GENERATE|  Preliminary Number of Bonds generated:                             0
 GENERATE|  Achieved consistency in connectivity generation.

 CELL| Volume [angstrom^3]:                                           512.000000
 CELL| Vector a [angstrom]:       8.000     0.000     0.000   |a| =     8.000000
 CELL| Vector b [angstrom]:       0.000     8.000     0.000   |b| =     8.000000
 CELL| Vector c [angstrom]:       0.000     0.000     8.000   |c| =     8.000000
 CELL| Angle (b,c), alpha [degree]:                                    90.000000
 CELL| Angle (a,c), beta  [degree]:                                    90.000000
 CELL| Angle (a,b), gamma [degree]:                                    90.000000
 CELL| Numerically orthorhombic:                                             YES
 CELL| Periodicity                                                          NONE

 CELL_REF| Volume [angstrom^3]:                                       512.000000
 CELL_REF| Vector a [angstrom     8.000     0.000     0.000   |a| =     8.000000
 CELL_REF| Vector b [angstrom     0.000     8.000     0.000   |b| =     8.000000
 CELL_REF| Vector c [angstrom     0.000     0.000     8.000   |c| =     8.000000
 CELL_REF| Angle (b,c), alpha [degree]:                                90.000000
 CELL_REF| Angle (a,c), beta  [degree]:                                90.000000
 CELL_REF| Angle (a,b), gamma [degree]:                                90.000000
 CELL_REF| Numerically orthorhombic:                                         YES
 CELL_REF| Periodicity                                                      NONE

 *******************************************************************************
 *******************************************************************************
 **                                                                           **
 **     #####                         ##              ##                      **
 **    ##   ##            ##          ##              ##                      **
 **   ##     ##                       ##            ######                    **
 **   ##     ##  ##   ##  ##   #####  ##  ##   ####   ##    #####    #####    **
 **   ##     ##  ##   ##  ##  ##      ## ##   ##      ##   ##   ##  ##   ##   **
 **   ##  ## ##  ##   ##  ##  ##      ####     ###    ##   ######   ######    **
 **    ##  ###   ##   ##  ##  ##      ## ##      ##   ##   ##       ##        **
 **     #######   #####   ##   #####  ##  ##  ####    ##    #####   ##        **
 **           ##                                                    ##        **
 **                                                                           **
 **                                                ... make the atoms dance   **
 **                                                                           **
 **            Copyright (C) by CP2K developers group (2000-2023)             **
 **                      J. Chem. Phys. 152, 194103 (2020)                    **
 **                                                                           **
 *******************************************************************************

 DFT| Spin restricted Kohn-Sham (RKS) calculation                            RKS
 DFT| Multiplicity                                                             1
 DFT| Number of spin states                                                    1
 DFT| Charge                                                                   0
 DFT| Self-interaction correction (SIC)                                       NO
 DFT| Cutoffs: density                                              1.000000E-10
 DFT|          gradient                                             1.000000E-10
 DFT|          tau                                                  1.000000E-10
 DFT|          cutoff_smoothing_range                               0.000000E+00
 DFT| XC density smoothing                                                  NONE
 DFT| XC derivatives                                                          PW

 FUNCTIONAL| PBE:
 FUNCTIONAL| J.P.Perdew, K.Burke, M.Ernzerhof, Phys. Rev. Letter, vol. 77, n 18,
 FUNCTIONAL|  pp. 3865-3868, (1996) {spin unpolarized}                          


 QS| Method:                                                                GAPW
 QS| Density plane wave grid type                        NON-SPHERICAL FULLSPACE
 QS| Number of grid levels:                                                    5
 QS| Density cutoff [a.u.]:                                                600.0
 QS| Multi grid cutoff [a.u.]: 1) grid level                               600.0
 QS|                           2) grid level                               200.0
 QS|                           3) grid level                                66.7
 QS|                           4) grid level                                22.2
 QS|                           5) grid level                                 7.4
 QS| Grid level progression factor:                                          3.0
 QS| Relative density cutoff [a.u.]:                                        40.0
 QS| Interaction thresholds: eps_pgf_orb:                                1.0E-30
 QS|                         eps_filter_matrix:                          0.0E+00
 QS|                         eps_core_charge:                            1.0E-17
 QS|                         eps_rho_gspace:                             1.0E-15
 QS|                         eps_rho_rspace:                             1.0E-15
 QS|                         eps_gvg_rspace:                             3.2E-08
 QS|                         eps_ppl:                                    1.0E-02
 QS|                         eps_ppnl:                                   3.2E-10
 QS| GAPW|      One center basis from orbital basis primitives
 QS| GAPW|                   eps_fit:                                    1.0E-04
 QS| GAPW|                   eps_iso:                                    1.0E-12
 QS| GAPW|                   eps_svd:                                    1.0E-08
 QS| GAPW|                   eps_cpc:                                    1.0E-15
 QS| GAPW|   atom-r-grid: quadrature:                                     GC_LOG
 QS| GAPW|      atom-s-grid:  max l :                                          6
 QS| GAPW|      max_l_rho0 :                                                   2


 ATOMIC KIND INFORMATION

  1. Atomic kind: Br                                    Number of atoms:       1

     Orbital Basis Set                                                 def2-TZVP

       Number of orbital shell sets:                                          16
       Number of orbital shells:                                              16
       Number of primitive Cartesian functions:                               39
       Number of Cartesian basis functions:                                   55
       Number of spherical basis functions:                                   48
       Norm type:                                                              2

       Normalised Cartesian orbitals:

                        Set   Shell   Orbital            Exponent    Coefficient

                          1       1    1s           565073.252560       3.399002
                                                     84701.723179       6.349918
                                                     19276.271900      10.885983
                                                      5456.428458      17.203944
                                                      1776.950350      24.262657
                                                       639.193983      26.970446
                                                       248.788240      19.426578
                                                        98.678305       5.320857

                          2       1    1s              606.078246      -2.246347
                                                       188.455985      -4.402213
                                                        31.497145       5.204758
                                                        13.736008       2.747959

                          3       1    1s               21.203213      -2.950537
                                                         3.761642       2.302929

                          4       1    1s                1.773593       1.095344

                          5       1    1s                0.451974       0.392867

                          6       1    1s                0.166134       0.185461

                          7       1    1px            3019.695572      86.083390
                                                       715.354811     116.337746
                                                       229.983288     133.647226
                                                        86.167845     113.423595
                                                        34.667871      57.787599
                                                        14.113870      10.283841
                          7       1    1py            3019.695572      86.083390
                                                       715.354811     116.337746
                                                       229.983288     133.647226
                                                        86.167845     113.423595
                                                        34.667871      57.787599
                                                        14.113870      10.283841
                          7       1    1pz            3019.695572      86.083390
                                                       715.354811     116.337746
                                                       229.983288     133.647226
                                                        86.167845     113.423595
                                                        34.667871      57.787599
                                                        14.113870      10.283841

                          8       1    1px              57.085653      -4.314100
                                                         8.819385       6.253186
                                                         3.934030       4.032288
                                                         1.799883       0.880403
                          8       1    1py              57.085653      -4.314100
                                                         8.819385       6.253186
                                                         3.934030       4.032288
                                                         1.799883       0.880403
                          8       1    1pz              57.085653      -4.314100
                                                         8.819385       6.253186
                                                         3.934030       4.032288
                                                         1.799883       0.880403

                          9       1    1px               0.668994       0.862418
                          9       1    1py               0.668994       0.862418
                          9       1    1pz               0.668994       0.862418

                         10       1    1px               0.271362       0.279175
                         10       1    1py               0.271362       0.279175
                         10       1    1pz               0.271362       0.279175

                         11       1    1px               0.100838       0.080997
                         11       1    1py               0.100838       0.080997
                         11       1    1pz               0.100838       0.080997

                         12       1    1dx2            168.853703     128.136503
                                                        49.977950     105.341565
                                                        18.274913      62.673781
                                                         7.245569      23.319752
                                                         2.856232       4.785782
                         12       1    1dxy            168.853703     221.938934
                                                        49.977950     182.456942
                                                        18.274913     108.554174
                                                         7.245569      40.390995
                                                         2.856232       8.289218
                         12       1    1dxz            168.853703     221.938934
                                                        49.977950     182.456942
                                                        18.274913     108.554174
                                                         7.245569      40.390995
                                                         2.856232       8.289218
                         12       1    1dy2            168.853703     128.136503
                                                        49.977950     105.341565
                                                        18.274913      62.673781
                                                         7.245569      23.319752
                                                         2.856232       4.785782
                         12       1    1dyz            168.853703     221.938934
                                                        49.977950     182.456942
                                                        18.274913     108.554174
                                                         7.245569      40.390995
                                                         2.856232       8.289218
                         12       1    1dz2            168.853703     128.136503
                                                        49.977950     105.341565
                                                        18.274913      62.673781
                                                         7.245569      23.319752
                                                         2.856232       4.785782

                         13       1    1dx2              1.045962       1.780584
                         13       1    1dxy              1.045962       3.084061
                         13       1    1dxz              1.045962       3.084061
                         13       1    1dy2              1.045962       1.780584
                         13       1    1dyz              1.045962       3.084061
                         13       1    1dz2              1.045962       1.780584

                         14       1    1dx2              0.568657       0.612910
                         14       1    1dxy              0.568657       1.061592
                         14       1    1dxz              0.568657       1.061592
                         14       1    1dy2              0.568657       0.612910
                         14       1    1dyz              0.568657       1.061592
                         14       1    1dz2              0.568657       0.612910

                         15       1    1dx2              0.220315       0.116610
                         15       1    1dxy              0.220315       0.201975
                         15       1    1dxz              0.220315       0.201975
                         15       1    1dy2              0.220315       0.116610
                         15       1    1dyz              0.220315       0.201975
                         15       1    1dz2              0.220315       0.116610

                         16       1    1fx3              0.570833       0.416965
                         16       1    1fx2y             0.570833       0.932363
                         16       1    1fx2z             0.570833       0.932363
                         16       1    1fxy2             0.570833       0.932363
                         16       1    1fxyz             0.570833       1.614900
                         16       1    1fxz2             0.570833       0.932363
                         16       1    1fy3              0.570833       0.416965
                         16       1    1fy2z             0.570833       0.932363
                         16       1    1fyz2             0.570833       0.932363
                         16       1    1fz3              0.570833       0.416965

       Atomic covalent radius [Angstrom]:                                  1.140

       Atomic van der Waals radius [Angstrom]:                             1.850

     The atoms of this atomic kind are PAW atoms (GAPW):
       Hard Gaussian function radius:                                      1.512
       Rho0 radius:                                                        1.512
       Maximum GTO radius used for PAW projector construction:            24.566

     GAPW Soft Basis Set                                          def2-TZVP_soft

       Number of orbital shell sets:                                          16
       Number of orbital shells:                                              16
       Number of primitive Cartesian functions:                               14
       Number of Cartesian basis functions:                                   55
       Number of spherical basis functions:                                   48
       Norm type:                                                              2

       Normalised Cartesian orbitals:

                        Set   Shell   Orbital            Exponent    Coefficient

                          1       1    1s         

                          2       1    1s         

                          3       1    1s                3.761642       2.302929

                          4       1    1s                1.773593       1.095344

                          5       1    1s                0.451974       0.392867

                          6       1    1s                0.166134       0.185461

                          7       1    1px        
                          7       1    1py        
                          7       1    1pz        

                          8       1    1px               3.934030       4.032288
                                                         1.799883       0.880403
                          8       1    1py               3.934030       4.032288
                                                         1.799883       0.880403
                          8       1    1pz               3.934030       4.032288
                                                         1.799883       0.880403

                          9       1    1px               0.668994       0.862418
                          9       1    1py               0.668994       0.862418
                          9       1    1pz               0.668994       0.862418

                         10       1    1px               0.271362       0.279175
                         10       1    1py               0.271362       0.279175
                         10       1    1pz               0.271362       0.279175

                         11       1    1px               0.100838       0.080997
                         11       1    1py               0.100838       0.080997
                         11       1    1pz               0.100838       0.080997

                         12       1    1dx2              2.856232       4.785782
                         12       1    1dxy              2.856232       8.289218
                         12       1    1dxz              2.856232       8.289218
                         12       1    1dy2              2.856232       4.785782
                         12       1    1dyz              2.856232       8.289218
                         12       1    1dz2              2.856232       4.785782

                         13       1    1dx2              1.045962       1.780584
                         13       1    1dxy              1.045962       3.084061
                         13       1    1dxz              1.045962       3.084061
                         13       1    1dy2              1.045962       1.780584
                         13       1    1dyz              1.045962       3.084061
                         13       1    1dz2              1.045962       1.780584

                         14       1    1dx2              0.568657       0.612910
                         14       1    1dxy              0.568657       1.061592
                         14       1    1dxz              0.568657       1.061592
                         14       1    1dy2              0.568657       0.612910
                         14       1    1dyz              0.568657       1.061592
                         14       1    1dz2              0.568657       0.612910

                         15       1    1dx2              0.220315       0.116610
                         15       1    1dxy              0.220315       0.201975
                         15       1    1dxz              0.220315       0.201975
                         15       1    1dy2              0.220315       0.116610
                         15       1    1dyz              0.220315       0.201975
                         15       1    1dz2              0.220315       0.116610

                         16       1    1fx3              0.570833       0.416965
                         16       1    1fx2y             0.570833       0.932363
                         16       1    1fx2z             0.570833       0.932363
                         16       1    1fxy2             0.570833       0.932363
                         16       1    1fxyz             0.570833       1.614900
                         16       1    1fxz2             0.570833       0.932363
                         16       1    1fy3              0.570833       0.416965
                         16       1    1fy2z             0.570833       0.932363
                         16       1    1fyz2             0.570833       0.932363
                         16       1    1fz3              0.570833       0.416965

     AE Potential information for                                            ALL

       Description:                                       All-electron potential
                                          Krack, Parrinello, PCCP 2, 2105 (2000)

       Gaussian exponent of the core charge distribution:               2.000000
       Electronic configuration (s p d ...):                           8  17  10

  2. Atomic kind: H                                     Number of atoms:       1

     Orbital Basis Set                                                 def2-TZVP

       Number of orbital shell sets:                                           4
       Number of orbital shells:                                               4
       Number of primitive Cartesian functions:                                6
       Number of Cartesian basis functions:                                    6
       Number of spherical basis functions:                                    6
       Norm type:                                                              2

       Normalised Cartesian orbitals:

                        Set   Shell   Orbital            Exponent    Coefficient

                          1       1    1s               34.061341       0.255630
                                                         5.123575       0.461360
                                                         1.164663       0.681121

                          2       1    1s                0.327230       0.308355

                          3       1    1s                0.103072       0.129648

                          4       1    1px               0.800000       1.078456
                          4       1    1py               0.800000       1.078456
                          4       1    1pz               0.800000       1.078456

       Atomic covalent radius [Angstrom]:                                  0.320

       Atomic van der Waals radius [Angstrom]:                             1.090

     The atoms of this atomic kind are PAW atoms (GAPW):
       Hard Gaussian function radius:                                      1.200
       Rho0 radius:                                                        1.200
       Maximum GTO radius used for PAW projector construction:            24.566

     GAPW Soft Basis Set                                          def2-TZVP_soft

       Number of orbital shell sets:                                           4
       Number of orbital shells:                                               4
       Number of primitive Cartesian functions:                                5
       Number of Cartesian basis functions:                                    6
       Number of spherical basis functions:                                    6
       Norm type:                                                              2

       Normalised Cartesian orbitals:

                        Set   Shell   Orbital            Exponent    Coefficient

                          1       1    1s                5.123575       0.461360
                                                         1.164663       0.681121

                          2       1    1s                0.327230       0.308355

                          3       1    1s                0.103072       0.129648

                          4       1    1px               0.800000       1.078456
                          4       1    1py               0.800000       1.078456
                          4       1    1pz               0.800000       1.078456

     AE Potential information for                                            ALL

       Description:                                       All-electron potential
                                          Krack, Parrinello, PCCP 2, 2105 (2000)

       Gaussian exponent of the core charge distribution:              12.500000
       Electronic configuration (s p d ...):                           1   0   0


 MOLECULE KIND INFORMATION


 All atoms are their own molecule, skipping detailed information


 TOTAL NUMBERS AND MAXIMUM NUMBERS

  Total number of            - Atomic kinds:                                   2
                             - Atoms:                                          2
                             - Shell sets:                                    20
                             - Shells:                                        20
                             - Primitive Cartesian functions:                 45
                             - Cartesian basis functions:                     61
                             - Spherical basis functions:                     54

  Maximum angular momentum of the orbital basis functions:                     3


 MODULE QUICKSTEP: ATOMIC COORDINATES IN ANGSTROM

   Atom Kind Element         X             Y             Z       Z(eff)     Mass
      1    1 Br   35      3.500000      4.000000      4.000000  35.0000  79.9040
      2    2 H     1      4.500000      4.000000      4.000000   1.0000   1.0079



 SCF PARAMETERS         Density guess:                                    ATOMIC
                        --------------------------------------------------------
                        max_scf:                                              20
                        max_scf_history:                                       0
                        max_diis:                                              4
                        --------------------------------------------------------
                        eps_scf:                                        1.00E-08
                        eps_scf_history:                                0.00E+00
                        eps_diis:                                       1.00E-01
                        eps_eigval:                                     1.00E-05
                        --------------------------------------------------------
                        level_shift [a.u.]:                             0.000000
                        --------------------------------------------------------
                        Outer loop SCF in use 
                        No variables optimised in outer loop
                        eps_scf                                         1.00E-08
                        max_scf                                               50
                        No outer loop optimization
                        step_size                                       5.00E-01

 PW_GRID| Information for grid number                                          1
 PW_GRID| Grid distributed over                                    64 processors
 PW_GRID| Real space group dimensions                                    64    1
 PW_GRID| the grid is blocked:                                                NO
 PW_GRID| Cutoff [a.u.]                                                   1200.0
 PW_GRID| spherical cutoff:                                                   NO
 PW_GRID|   Bounds   1           -120     119                Points:         240
 PW_GRID|   Bounds   2           -120     119                Points:         240
 PW_GRID|   Bounds   3           -120     119                Points:         240
 PW_GRID| Volume element (a.u.^3)  0.2499E-03     Volume (a.u.^3)      3455.1473
 PW_GRID| Grid span                                                    FULLSPACE
 PW_GRID|   Distribution                         Average         Max         Min
 PW_GRID|   G-Vectors                           216000.0      216000      216000
 PW_GRID|   G-Rays                                 900.0         900         900
 PW_GRID|   Real Space Points                   216000.0      230400      172800

 PW_GRID| Information for grid number                                          2
 PW_GRID| Number of the reference grid                                         1
 PW_GRID| Grid distributed over                                    64 processors
 PW_GRID| Real space group dimensions                                    64    1
 PW_GRID| the grid is blocked:                                                NO
 PW_GRID| Cutoff [a.u.]                                                    600.0
 PW_GRID| spherical cutoff:                                                   NO
 PW_GRID|   Bounds   1            -90      89                Points:         180
 PW_GRID|   Bounds   2            -90      89                Points:         180
 PW_GRID|   Bounds   3            -90      89                Points:         180
 PW_GRID| Volume element (a.u.^3)  0.5924E-03     Volume (a.u.^3)      3455.1473
 PW_GRID| Grid span                                                    FULLSPACE
 PW_GRID|   Distribution                         Average         Max         Min
 PW_GRID|   G-Vectors                            91125.0       91440       90720
 PW_GRID|   G-Rays                                 506.2         508         504
 PW_GRID|   Real Space Points                    91125.0       97200       64800

 PW_GRID| Information for grid number                                          3
 PW_GRID| Number of the reference grid                                         2
 PW_GRID| Grid distributed over                                    64 processors
 PW_GRID| Real space group dimensions                                    64    1
 PW_GRID| the grid is blocked:                                                NO
 PW_GRID| Cutoff [a.u.]                                                    200.0
 PW_GRID| spherical cutoff:                                                   NO
 PW_GRID|   Bounds   1            -50      49                Points:         100
 PW_GRID|   Bounds   2            -50      49                Points:         100
 PW_GRID|   Bounds   3            -50      49                Points:         100
 PW_GRID| Volume element (a.u.^3)  0.3455E-02     Volume (a.u.^3)      3455.1473
 PW_GRID| Grid span                                                    FULLSPACE
 PW_GRID|   Distribution                         Average         Max         Min
 PW_GRID|   G-Vectors                            15625.0       15800       15500
 PW_GRID|   G-Rays                                 156.2         158         155
 PW_GRID|   Real Space Points                    15625.0       20000       10000

 PW_GRID| Information for grid number                                          4
 PW_GRID| Number of the reference grid                                         2
 PW_GRID| Grid distributed over                                    64 processors
 PW_GRID| Real space group dimensions                                     8    8
 PW_GRID| the grid is blocked:                                                NO
 PW_GRID| Cutoff [a.u.]                                                     66.7
 PW_GRID| spherical cutoff:                                                   NO
 PW_GRID|   Bounds   1            -30      29                Points:          60
 PW_GRID|   Bounds   2            -30      29                Points:          60
 PW_GRID|   Bounds   3            -30      29                Points:          60
 PW_GRID| Volume element (a.u.^3)  0.1600E-01     Volume (a.u.^3)      3455.1473
 PW_GRID| Grid span                                                    FULLSPACE
 PW_GRID|   Distribution                         Average         Max         Min
 PW_GRID|   G-Vectors                             3375.0        3540        3240
 PW_GRID|   G-Rays                                  56.2          59          54
 PW_GRID|   Real Space Points                     3375.0        3840        2940

 PW_GRID| Information for grid number                                          5
 PW_GRID| Number of the reference grid                                         2
 PW_GRID| Grid distributed over                                    64 processors
 PW_GRID| Real space group dimensions                                     8    8
 PW_GRID| the grid is blocked:                                                NO
 PW_GRID| Cutoff [a.u.]                                                     22.2
 PW_GRID| spherical cutoff:                                                   NO
 PW_GRID|   Bounds   1            -18      17                Points:          36
 PW_GRID|   Bounds   2            -18      17                Points:          36
 PW_GRID|   Bounds   3            -18      17                Points:          36
 PW_GRID| Volume element (a.u.^3)  0.7406E-01     Volume (a.u.^3)      3455.1473
 PW_GRID| Grid span                                                    FULLSPACE
 PW_GRID|   Distribution                         Average         Max         Min
 PW_GRID|   G-Vectors                              729.0         792         684
 PW_GRID|   G-Rays                                  20.2          22          19
 PW_GRID|   Real Space Points                      729.0         900         576

 PW_GRID| Information for grid number                                          6
 PW_GRID| Number of the reference grid                                         2
 PW_GRID| Grid distributed over                                    64 processors
 PW_GRID| Real space group dimensions                                     8    8
 PW_GRID| the grid is blocked:                                                NO
 PW_GRID| Cutoff [a.u.]                                                      7.4
 PW_GRID| spherical cutoff:                                                   NO
 PW_GRID|   Bounds   1            -10       9                Points:          20
 PW_GRID|   Bounds   2            -10       9                Points:          20
 PW_GRID|   Bounds   3            -10       9                Points:          20
 PW_GRID| Volume element (a.u.^3)  0.4319         Volume (a.u.^3)      3455.1473
 PW_GRID| Grid span                                                    FULLSPACE
 PW_GRID|   Distribution                         Average         Max         Min
 PW_GRID|   G-Vectors                              125.0         140         100
 PW_GRID|   G-Rays                                   6.2           7           5
 PW_GRID|   Real Space Points                      125.0         180          80

 POISSON| Solver                                          Martyna-Tuckerman (MT)
 POISSON| MT| Alpha                                                        7.000
 POISSON| MT| Relative cutoff                                                2.0
 POISSON| Periodicity                                                       NONE

 RS_GRID| Information for grid number                                          2
 RS_GRID|   Bounds   1            -90      89                Points:         180
 RS_GRID|   Bounds   2            -90      89                Points:         180
 RS_GRID|   Bounds   3            -90      89                Points:         180
 RS_GRID| Real space fully replicated
 RS_GRID| Group size                                                           1

 RS_GRID| Information for grid number                                          3
 RS_GRID|   Bounds   1            -50      49                Points:         100
 RS_GRID|   Bounds   2            -50      49                Points:         100
 RS_GRID|   Bounds   3            -50      49                Points:         100
 RS_GRID| Real space fully replicated
 RS_GRID| Group size                                                           1

 RS_GRID| Information for grid number                                          4
 RS_GRID|   Bounds   1            -30      29                Points:          60
 RS_GRID|   Bounds   2            -30      29                Points:          60
 RS_GRID|   Bounds   3            -30      29                Points:          60
 RS_GRID| Real space fully replicated
 RS_GRID| Group size                                                           1

 RS_GRID| Information for grid number                                          5
 RS_GRID|   Bounds   1            -18      17                Points:          36
 RS_GRID|   Bounds   2            -18      17                Points:          36
 RS_GRID|   Bounds   3            -18      17                Points:          36
 RS_GRID| Real space fully replicated
 RS_GRID| Group size                                                           1

 RS_GRID| Information for grid number                                          6
 RS_GRID|   Bounds   1            -10       9                Points:          20
 RS_GRID|   Bounds   2            -10       9                Points:          20
 RS_GRID|   Bounds   3            -10       9                Points:          20
 RS_GRID| Real space fully replicated
 RS_GRID| Group size                                                           1

 BFGS| Use rational function optimization for step estimation:                NO
 BFGS| Use model Hessian for initial guess:                                  YES
 BFGS| Restart Hessian:                                                       NO
 BFGS| Trust radius:                                                       0.472

 *******************************************************************************
 ***                     STARTING GEOMETRY OPTIMIZATION                      ***
 ***                                   BFGS                                  ***
 *******************************************************************************

 Number of electrons:                                                         36
 Number of occupied orbitals:                                                 18
 Number of molecular orbitals:                                                18

 Number of orbital functions:                                                 54
 Number of independent orbital functions:                                     54

 Extrapolation method: initial_guess

 Atomic guess: The first density matrix is obtained in terms of atomic orbitals
               and electronic configurations assigned to each atomic kind

 Guess for atomic kind: Br

 Electronic structure
    Total number of core electrons                                          0.00
    Total number of valence electrons                                      35.00
    Total number of electrons                                              35.00
    Multiplicity                                                   not specified
    S      2.00  2.00  2.00  2.00
    P      6.00  6.00  5.00
    D     10.00
 

 *******************************************************************************
                  Iteration          Convergence                     Energy [au]
 *******************************************************************************
                          1         29.4947                   -2547.771731894638
                          2         12.6145                   -2561.714132389836
                          3         1.87163                   -2570.038256943094
                          4        0.334878                   -2570.423841570358
                          5        0.812305E-01               -2570.493414445549
                          6        0.103133E-01               -2570.493730060359
                          7        0.355600E-03               -2570.493744060778
                          8        0.865650E-06               -2570.493744076389

 Energy components [Hartree]           Total Energy ::        -2570.493744076389
                                        Band Energy ::        -1501.321957768243
                                     Kinetic Energy ::         2569.003562585806
                                   Potential Energy ::        -5139.497306662195
                                      Virial (-V/T) ::            2.000580062057
                                        Core Energy ::        -3580.479316790242
                                          XC Energy ::          -87.635586468674
                                     Coulomb Energy ::         1097.621159182527

 Orbital energies  State     L     Occupation   Energy[a.u.]          Energy[eV]

                       1     0          2.000    -480.221673       -13067.496285
                       2     0          2.000     -61.767395        -1680.776304
                       3     0          2.000      -8.416352         -229.020587
                       4     0          2.000      -0.718375          -19.547988
 
                       1     1          6.000     -55.739994        -1516.762374
                       2     1          6.000      -6.306888         -171.619154
                       3     1          5.000      -0.294308           -8.008522
 
                       1     2         10.000      -2.532153          -68.903398
 

 Total Electron Density at R=0:                                     28778.773622

 Guess for atomic kind: H

 Electronic structure
    Total number of core electrons                                          0.00
    Total number of valence electrons                                       1.00
    Total number of electrons                                               1.00
    Multiplicity                                                   not specified
    S      1.00
 

 *******************************************************************************
                  Iteration          Convergence                     Energy [au]
 *******************************************************************************
                          1        0.917598E-02                  -0.444895232610
                          2        0.101733E-02                  -0.444969959338
                          3        0.739292E-04                  -0.444971980690
                          4        0.601377E-07                  -0.444971989573

 Energy components [Hartree]           Total Energy ::           -0.444971989573
                                        Band Energy ::           -0.230448725171
                                     Kinetic Energy ::            0.428990089350
                                   Potential Energy ::           -0.873962078923
                                      Virial (-V/T) ::            2.037254707321
                                        Core Energy ::           -0.496265746842
                                          XC Energy ::           -0.234272986041
                                     Coulomb Energy ::            0.285566743311

 Orbital energies  State     L     Occupation   Energy[a.u.]          Energy[eV]

                       1     0          1.000      -0.230449           -6.270829
 

 Total Electron Density at R=0:                                         0.247098
 Re-scaling the density matrix to get the right number of electrons
                  # Electrons              Trace(P)               Scaling factor
                           36                36.000                        1.000


 SCF WAVEFUNCTION OPTIMIZATION

  ----------------------------------- OT ---------------------------------------
  Minimizer      : DIIS                : direct inversion
                                         in the iterative subspace
                                         using   7 DIIS vectors
                                         safer DIIS on
  Preconditioner : FULL_ALL            : diagonalization, state selective
  Precond_solver : DEFAULT
  stepsize       :    0.15000000                  energy_gap     :    0.08000000
  eps_taylor     :   0.10000E-15                  max_taylor     :             4
  ----------------------------------- OT ---------------------------------------

  Step     Update method      Time    Convergence         Total energy    Change
  ------------------------------------------------------------------------------
     1 OT DIIS     0.15E+00   26.4     0.67994501     -2538.4108317461 -2.54E+03
     2 OT DIIS     0.15E+00   17.2     0.10588400     -2572.4112925050 -3.40E+01
     3 OT DIIS     0.15E+00   17.7     0.04829836     -2573.3007120475 -8.89E-01
     4 OT DIIS     0.15E+00   16.8     0.03428211     -2573.6536034453 -3.53E-01
     5 OT DIIS     0.15E+00   16.9     0.02647686     -2573.7441350495 -9.05E-02
     6 OT DIIS     0.15E+00   17.0     0.01616421     -2573.9318236277 -1.88E-01
     7 OT DIIS     0.15E+00   17.2     0.00993882     -2574.0352870098 -1.03E-01
     8 OT DIIS     0.15E+00   17.3     0.00797329     -2574.0748578740 -3.96E-02
     9 OT DIIS     0.15E+00   18.3     0.01132358     -2574.0990873380 -2.42E-02
    10 OT DIIS     0.15E+00   17.7     0.00677077     -2574.1132567978 -1.42E-02
    11 OT DIIS     0.15E+00   17.8     0.00824577     -2574.1262910935 -1.30E-02
    12 OT DIIS     0.15E+00   17.9     0.00568767     -2574.1449276246 -1.86E-02
    13 OT DIIS     0.15E+00   17.1     0.00291989     -2574.1548589594 -9.93E-03
    14 OT DIIS     0.15E+00   16.3     0.00331945     -2574.1555128906 -6.54E-04
    15 OT DIIS     0.15E+00   17.0     0.00217381     -2574.1597094096 -4.20E-03
    16 OT DIIS     0.15E+00   18.0     0.00175084     -2574.1641761812 -4.47E-03
    17 OT DIIS     0.15E+00   17.7     0.00109262     -2574.1662959431 -2.12E-03
    18 OT DIIS     0.15E+00   18.1     0.00106544     -2574.1668765548 -5.81E-04
    19 OT DIIS     0.15E+00   18.2     0.00140082     -2574.1675821687 -7.06E-04
    20 OT DIIS     0.15E+00   17.3     0.00079881     -2574.1674895874  9.26E-05

  Leaving inner SCF loop after reaching    20 steps.


  Electronic density on regular grids:        -18.3005961109       17.6994038891
  Core density on regular grids:               36.0000000000       -0.0000000000
  Hard and soft densities (Lebedev):          -38.4570790763      -20.7576778108
  Total Rho_soft + Rho1_hard - Rho1_soft      -35.9999973764
  Total charge density (r-space):               0.0000026236
  Total Rho_soft + Rho0_soft (g-space):         0.0000001537

  Overlap energy of the core charge distribution:               0.00832656706470
  Self energy of the core charge distribution:               -692.54271380487091
  Core Hamiltonian energy:                                  -2074.16250339850285
  Hartree energy:                                             123.55267050809434
  Exchange-correlation energy:                                -15.29889188611434

  GAPW| Exc from hard and soft atomic rho1:                   -76.12501532012675
  GAPW| local Eh = 1 center integrals:                        160.40063774701628

  Total energy:                                             -2574.16748958743938

  outer SCF iter =    1 RMS gradient =   0.80E-03 energy =      -2574.1674895874

  ----------------------------------- OT ---------------------------------------
  Minimizer      : DIIS                : direct inversion
                                         in the iterative subspace
                                         using   7 DIIS vectors
                                         safer DIIS on
  Preconditioner : FULL_ALL            : diagonalization, state selective
  Precond_solver : DEFAULT
  stepsize       :    0.15000000                  energy_gap     :    0.08000000
  eps_taylor     :   0.10000E-15                  max_taylor     :             4
  ----------------------------------- OT ---------------------------------------

  Step     Update method      Time    Convergence         Total energy    Change
  ------------------------------------------------------------------------------
     1 OT DIIS     0.15E+00   42.8     0.00167769     -2574.1679282306 -4.39E-04
     2 OT DIIS     0.15E+00   14.5     0.00064241     -2574.1682108278 -2.83E-04
     3 OT DIIS     0.15E+00   15.0     0.00004913     -2574.1682598837 -4.91E-05
     4 OT DIIS     0.15E+00   14.7     0.00001411     -2574.1682601002 -2.16E-07
     5 OT DIIS     0.15E+00   15.8     0.00000083     -2574.1682601250 -2.49E-08
     6 OT DIIS     0.15E+00   15.1     0.00000016     -2574.1682601341 -9.04E-09
     7 OT DIIS     0.15E+00   15.2     0.00000005     -2574.1682601384 -4.36E-09
     8 OT DIIS     0.15E+00   15.1     0.00000001     -2574.1682601436 -5.16E-09
     9 OT DIIS     0.15E+00   15.0     2.4081E-09     -2574.1682601486 -4.95E-09

  *** SCF run converged in     9 steps ***


  Electronic density on regular grids:        -18.3012491656       17.6987508344
  Core density on regular grids:               36.0000000000       -0.0000000000
  Hard and soft densities (Lebedev):          -38.4619129638      -20.7631647554
  Total Rho_soft + Rho1_hard - Rho1_soft      -35.9999973739
  Total charge density (r-space):               0.0000026261
  Total Rho_soft + Rho0_soft (g-space):         0.0000001562

  Overlap energy of the core charge distribution:               0.00832656706470
  Self energy of the core charge distribution:               -692.54271380487091
  Core Hamiltonian energy:                                  -2074.15851123686662
  Hartree energy:                                             123.55426904716205
  Exchange-correlation energy:                                -15.30011129460019

  GAPW| Exc from hard and soft atomic rho1:                   -76.12356013949667
  GAPW| local Eh = 1 center integrals:                        160.39404071304870

  Total energy:                                             -2574.16826014855906

  outer SCF iter =    2 RMS gradient =   0.24E-08 energy =      -2574.1682601486
  outer SCF loop converged in   2 iterations or   29 steps


 !-----------------------------------------------------------------------------!
                     Mulliken Population Analysis

 #  Atom  Element  Kind  Atomic population                           Net charge
       1     Br       1         35.114633                             -0.114633
       2     H        2          0.885367                              0.114633
 # Total charge                             36.000000                 -0.000000

 !-----------------------------------------------------------------------------!

 !-----------------------------------------------------------------------------!
                           Hirshfeld Charges

  #Atom  Element  Kind  Ref Charge     Population                    Net charge
      1       Br     1      35.000         35.681                        -0.681
      2       H      2       1.000          0.319                         0.681

  Total Charge                                                            0.000
 !-----------------------------------------------------------------------------!

 ENERGY| Total FORCE_EVAL ( QS ) energy [a.u.]:            -2574.168260152632683

 --------  Informations at step =     0 ------------
  Optimization Method        =                 BFGS
  Total Energy               =     -2574.1682601526
  Used time                  =              517.651
 ---------------------------------------------------

 --------------------------
 OPTIMIZATION STEP:      1
 --------------------------

 Number of electrons:                                                         36
 Number of occupied orbitals:                                                 18
 Number of molecular orbitals:                                                18

 Number of orbital functions:                                                 54
 Number of independent orbital functions:                                     54

 Parameters for the always stable predictor-corrector (ASPC) method:

  ASPC order: 0

  B(1) =   1.000000

 Extrapolation method: ASPC


 SCF WAVEFUNCTION OPTIMIZATION

  ----------------------------------- OT ---------------------------------------
  Minimizer      : DIIS                : direct inversion
                                         in the iterative subspace
                                         using   7 DIIS vectors
                                         safer DIIS on
  Preconditioner : FULL_ALL            : diagonalization, state selective
  Precond_solver : DEFAULT
  stepsize       :    0.15000000                  energy_gap     :    0.08000000
  eps_taylor     :   0.10000E-15                  max_taylor     :             4
  ----------------------------------- OT ---------------------------------------

  Step     Update method      Time    Convergence         Total energy    Change
  ------------------------------------------------------------------------------
     1 OT DIIS     0.15E+00   23.6     0.01482191     -2574.3417684522 -2.57E+03
     2 OT DIIS     0.15E+00   19.8     0.00504179     -2574.3610264326 -1.93E-02
     3 OT DIIS     0.15E+00   20.3     0.00192657     -2574.3633404258 -2.31E-03
     4 OT DIIS     0.15E+00   19.8     0.00031840     -2574.3636533783 -3.13E-04
     5 OT DIIS     0.15E+00   20.0     0.00005639     -2574.3636640843 -1.07E-05
     6 OT DIIS     0.15E+00   20.8     0.00001165     -2574.3636643628 -2.78E-07
     7 OT DIIS     0.15E+00   20.8     0.00000145     -2574.3636643713 -8.48E-09
     8 OT DIIS     0.15E+00   20.3     0.00000028     -2574.3636643691  2.15E-09
     9 OT DIIS     0.15E+00   20.0     0.00000005     -2574.3636643676  1.56E-09
    10 OT DIIS     0.15E+00   20.1     6.9812E-09     -2574.3636643681 -5.39E-10

  *** SCF run converged in    10 steps ***


  Electronic density on regular grids:        -18.3037651944       17.6962348056
  Core density on regular grids:               36.0000000000       -0.0000000000
  Hard and soft densities (Lebedev):          -36.9335398452      -19.2373074312
  Total Rho_soft + Rho1_hard - Rho1_soft      -35.9999976084
  Total charge density (r-space):               0.0000023916
  Total Rho_soft + Rho0_soft (g-space):        -0.0000000774

  Overlap energy of the core charge distribution:               0.00004081785458
  Self energy of the core charge distribution:               -692.54271380487091
  Core Hamiltonian energy:                                  -2074.43090977893826
  Hartree energy:                                             123.78288742059343
  Exchange-correlation energy:                                -15.17290934481059

  GAPW| Exc from hard and soft atomic rho1:                   -76.10987152230499
  GAPW| local Eh = 1 center integrals:                        160.10981184436972

  Total energy:                                             -2574.36366436810749

  outer SCF iter =    1 RMS gradient =   0.70E-08 energy =      -2574.3636643681
  outer SCF loop converged in   1 iterations or   10 steps


 !-----------------------------------------------------------------------------!
                     Mulliken Population Analysis

 #  Atom  Element  Kind  Atomic population                           Net charge
       1     Br       1         35.192104                             -0.192104
       2     H        2          0.807896                              0.192104
 # Total charge                             36.000000                  0.000000

 !-----------------------------------------------------------------------------!

 !-----------------------------------------------------------------------------!
                           Hirshfeld Charges

  #Atom  Element  Kind  Ref Charge     Population                    Net charge
      1       Br     1      35.000         35.715                        -0.715
      2       H      2       1.000          0.285                         0.715

  Total Charge                                                            0.000
 !-----------------------------------------------------------------------------!

 ENERGY| Total FORCE_EVAL ( QS ) energy [a.u.]:            -2574.363664367257570

 --------  Informations at step =     1 ------------
  Optimization Method        =                 BFGS
  Total Energy               =     -2574.3636643673
  Real energy change         =        -0.1954042146
  Predicted change in energy =        -0.2384836149
  Scaling factor             =         0.0000000000
  Step size                  =         0.3139821282
  Trust radius               =         0.4724315332
  Decrease in energy         =                  YES
  Used time                  =              215.957

  Convergence check :
  Max. step size             =         0.3139821282
  Conv. limit for step size  =         0.0030000000
  Convergence in step size   =                   NO
  RMS step size              =         0.1812776542
  Conv. limit for RMS step   =         0.0015000000
  Convergence in RMS step    =                   NO
  Max. gradient              =         0.0611629651
  Conv. limit for gradients  =         0.0004500000
  Conv. for gradients        =                   NO
  RMS gradient               =         0.0353124486
  Conv. limit for RMS grad.  =         0.0003000000
  Conv. for gradients        =                   NO
 ---------------------------------------------------
 Estimated peak process memory after this step [MiB]                         720

 --------------------------
 OPTIMIZATION STEP:      2
 --------------------------

 Number of electrons:                                                         36
 Number of occupied orbitals:                                                 18
 Number of molecular orbitals:                                                18

 Number of orbital functions:                                                 54
 Number of independent orbital functions:                                     54

 Parameters for the always stable predictor-corrector (ASPC) method:

  ASPC order: 0

  B(1) =   2.000000
  B(2) =  -1.000000

 Extrapolation method: ASPC


 SCF WAVEFUNCTION OPTIMIZATION

  ----------------------------------- OT ---------------------------------------
  Minimizer      : DIIS                : direct inversion
                                         in the iterative subspace
                                         using   7 DIIS vectors
                                         safer DIIS on
  Preconditioner : FULL_ALL            : diagonalization, state selective
  Precond_solver : DEFAULT
  stepsize       :    0.15000000                  energy_gap     :    0.08000000
  eps_taylor     :   0.10000E-15                  max_taylor     :             4
  ----------------------------------- OT ---------------------------------------

  Step     Update method      Time    Convergence         Total energy    Change
  ------------------------------------------------------------------------------
     1 OT DIIS     0.15E+00   24.0     0.01317049     -2574.3484717937 -2.57E+03
     2 OT DIIS     0.15E+00   20.4     0.00463048     -2574.3641544114 -1.57E-02
     3 OT DIIS     0.15E+00   20.8     0.00171483     -2574.3661886236 -2.03E-03
     4 OT DIIS     0.15E+00   19.5     0.00027781     -2574.3664225690 -2.34E-04
     5 OT DIIS     0.15E+00   20.7     0.00006015     -2574.3664297905 -7.22E-06
     6 OT DIIS     0.15E+00   20.7     0.00000990     -2574.3664300706 -2.80E-07
     7 OT DIIS     0.15E+00   20.5     0.00000147     -2574.3664300803 -9.73E-09
     8 OT DIIS     0.15E+00   19.9     0.00000026     -2574.3664300798  5.28E-10
     9 OT DIIS     0.15E+00   20.0     0.00000003     -2574.3664300785  1.31E-09
    10 OT DIIS     0.15E+00   20.5     5.8720E-09     -2574.3664300777  7.48E-10

  *** SCF run converged in    10 steps ***


  Electronic density on regular grids:        -18.3041066727       17.6958933273
  Core density on regular grids:               36.0000000000       -0.0000000000
  Hard and soft densities (Lebedev):          -36.8414087843      -19.1455178448
  Total Rho_soft + Rho1_hard - Rho1_soft      -35.9999976123
  Total charge density (r-space):               0.0000023877
  Total Rho_soft + Rho0_soft (g-space):        -0.0000000827

  Overlap energy of the core charge distribution:               0.00002416329166
  Self energy of the core charge distribution:               -692.54271380487091
  Core Hamiltonian energy:                                  -2074.44926388673639
  Hartree energy:                                             123.80073565676796
  Exchange-correlation energy:                                -15.16449040379618

  GAPW| Exc from hard and soft atomic rho1:                   -76.10884398130406
  GAPW| local Eh = 1 center integrals:                        160.09812217892568

  Total energy:                                             -2574.36643007772273

  outer SCF iter =    1 RMS gradient =   0.59E-08 energy =      -2574.3664300777
  outer SCF loop converged in   1 iterations or   10 steps


 !-----------------------------------------------------------------------------!
                     Mulliken Population Analysis

 #  Atom  Element  Kind  Atomic population                           Net charge
       1     Br       1         35.195539                             -0.195539
       2     H        2          0.804461                              0.195539
 # Total charge                             36.000000                  0.000000

 !-----------------------------------------------------------------------------!

 !-----------------------------------------------------------------------------!
                           Hirshfeld Charges

  #Atom  Element  Kind  Ref Charge     Population                    Net charge
      1       Br     1      35.000         35.716                        -0.716
      2       H      2       1.000          0.284                         0.716

  Total Charge                                                            0.000
 !-----------------------------------------------------------------------------!

 ENERGY| Total FORCE_EVAL ( QS ) energy [a.u.]:            -2574.366430080558075

 --------  Informations at step =     2 ------------
  Optimization Method        =                 BFGS
  Total Energy               =     -2574.3664300806
  Real energy change         =        -0.0027657133
  Predicted change in energy =        -0.0016818552
  Scaling factor             =         0.0000000000
  Step size                  =         0.0274980478
  Trust radius               =         0.4724315332
  Decrease in energy         =                  YES
  Used time                  =              218.218

  Convergence check :
  Max. step size             =         0.0274980478
  Conv. limit for step size  =         0.0030000000
  Convergence in step size   =                   NO
  RMS step size              =         0.0158759426
  Conv. limit for RMS step   =         0.0015000000
  Convergence in RMS step    =                   NO
  Max. gradient              =         0.0399310556
  Conv. limit for gradients  =         0.0004500000
  Conv. for gradients        =                   NO
  RMS gradient               =         0.0230542009
  Conv. limit for RMS grad.  =         0.0003000000
  Conv. for gradients        =                   NO
 ---------------------------------------------------
 Estimated peak process memory after this step [MiB]                         734

 --------------------------
 OPTIMIZATION STEP:      3
 --------------------------

 Number of electrons:                                                         36
 Number of occupied orbitals:                                                 18
 Number of molecular orbitals:                                                18

 Number of orbital functions:                                                 54
 Number of independent orbital functions:                                     54

 Parameters for the always stable predictor-corrector (ASPC) method:

  ASPC order: 1

  B(1) =   2.500000
  B(2) =  -2.000000
  B(3) =   0.500000

 Extrapolation method: ASPC


 SCF WAVEFUNCTION OPTIMIZATION

  ----------------------------------- OT ---------------------------------------
  Minimizer      : DIIS                : direct inversion
                                         in the iterative subspace
                                         using   7 DIIS vectors
                                         safer DIIS on
  Preconditioner : FULL_ALL            : diagonalization, state selective
  Precond_solver : DEFAULT
  stepsize       :    0.15000000                  energy_gap     :    0.08000000
  eps_taylor     :   0.10000E-15                  max_taylor     :             4
  ----------------------------------- OT ---------------------------------------

  Step     Update method      Time    Convergence         Total energy    Change
  ------------------------------------------------------------------------------
     1 OT DIIS     0.15E+00   23.7     0.00763673     -2574.3627998707 -2.57E+03
     2 OT DIIS     0.15E+00   17.4     0.00271079     -2574.3680297463 -5.23E-03
     3 OT DIIS     0.15E+00   17.4     0.00107644     -2574.3687122423 -6.82E-04
     4 OT DIIS     0.15E+00   17.7     0.00016566     -2574.3688037292 -9.15E-05
     5 OT DIIS     0.15E+00   17.5     0.00003070     -2574.3688064972 -2.77E-06
     6 OT DIIS     0.15E+00   17.7     0.00000589     -2574.3688065745 -7.73E-08
     7 OT DIIS     0.15E+00   18.0     0.00000062     -2574.3688065789 -4.40E-09
     8 OT DIIS     0.15E+00   18.2     0.00000012     -2574.3688065784  5.34E-10
     9 OT DIIS     0.15E+00   18.3     0.00000002     -2574.3688065764  1.96E-09
    10 OT DIIS     0.15E+00   17.7     3.7212E-09     -2574.3688065776 -1.23E-09

  *** SCF run converged in    10 steps ***


  Electronic density on regular grids:        -18.3047567956       17.6952432044
  Core density on regular grids:               36.0000000000       -0.0000000000
  Hard and soft densities (Lebedev):          -36.6865136457      -18.9912728227
  Total Rho_soft + Rho1_hard - Rho1_soft      -35.9999976187
  Total charge density (r-space):               0.0000023813
  Total Rho_soft + Rho0_soft (g-space):        -0.0000000885

  Overlap energy of the core charge distribution:               0.00000878252085
  Self energy of the core charge distribution:               -692.54271380487091
  Core Hamiltonian energy:                                  -2074.48095837776373
  Hartree energy:                                             123.83246804229705
  Exchange-correlation energy:                                -15.14963644490561

  GAPW| Exc from hard and soft atomic rho1:                   -76.10697306741244
  GAPW| local Eh = 1 center integrals:                        160.07899829248643

  Total energy:                                             -2574.36880657764868

  outer SCF iter =    1 RMS gradient =   0.37E-08 energy =      -2574.3688065776
  outer SCF loop converged in   1 iterations or   10 steps


 !-----------------------------------------------------------------------------!
                     Mulliken Population Analysis

 #  Atom  Element  Kind  Atomic population                           Net charge
       1     Br       1         35.200908                             -0.200908
       2     H        2          0.799092                              0.200908
 # Total charge                             36.000000                 -0.000000

 !-----------------------------------------------------------------------------!

 !-----------------------------------------------------------------------------!
                           Hirshfeld Charges

  #Atom  Element  Kind  Ref Charge     Population                    Net charge
      1       Br     1      35.000         35.716                        -0.716
      2       H      2       1.000          0.284                         0.716

  Total Charge                                                            0.000
 !-----------------------------------------------------------------------------!

 ENERGY| Total FORCE_EVAL ( QS ) energy [a.u.]:            -2574.368806577428131

 --------  Informations at step =     3 ------------
  Optimization Method        =                 BFGS
  Total Energy               =     -2574.3688065774
  Real energy change         =        -0.0023764969
  Predicted change in energy =        -0.0020650593
  Scaling factor             =         0.0000000000
  Step size                  =         0.0517158551
  Trust radius               =         0.4724315332
  Decrease in energy         =                  YES
  Used time                  =              196.309

  Convergence check :
  Max. step size             =         0.0517158551
  Conv. limit for step size  =         0.0030000000
  Convergence in step size   =                   NO
  RMS step size              =         0.0298580334
  Conv. limit for RMS step   =         0.0015000000
  Convergence in RMS step    =                   NO
  Max. gradient              =         0.0075151872
  Conv. limit for gradients  =         0.0004500000
  Conv. for gradients        =                   NO
  RMS gradient               =         0.0043388856
  Conv. limit for RMS grad.  =         0.0003000000
  Conv. for gradients        =                   NO
[...]
 -                                DBCSR STATISTICS                             -
 -                                                                             -
 -------------------------------------------------------------------------------
 COUNTER                                    TOTAL       BLAS       SMM       ACC
 flops     6 x     6 x    18               127008       0.0%    100.0%      0.0%
 flops     6 x    18 x     6               552096       0.0%    100.0%      0.0%
 flops     6 x    48 x    18              1016064       0.0%    100.0%      0.0%
 flops    18 x    18 x     6              1353024       0.0%    100.0%      0.0%
 flops     6 x    18 x    18              1683504       0.0%    100.0%      0.0%
 flops    48 x    18 x     6              4416768       0.0%    100.0%      0.0%
 flops     6 x    18 x    48              4416768       0.0%    100.0%      0.0%
 flops    48 x    48 x    18              8128512       0.0%    100.0%      0.0%
 flops    18 x    18 x    18              9412848       0.0%    100.0%      0.0%
 flops    18 x    18 x    48             10824192       0.0%    100.0%      0.0%
 flops    48 x    18 x    18             13468032       0.0%    100.0%      0.0%
 flops    48 x    18 x    48             35334144       0.0%    100.0%      0.0%
 flops inhomo. stacks                           0       0.0%      0.0%      0.0%
 flops total                        90.732960E+06       0.0%    100.0%      0.0%
 flops max/rank                     82.937520E+06       0.0%    100.0%      0.0%
 matmuls inhomo. stacks                         0       0.0%      0.0%      0.0%
 matmuls total                               4367       0.0%    100.0%      0.0%
 number of processed stacks                  4367       0.0%    100.0%      0.0%
 average stack size                                     0.0       1.0       0.0
 marketing flops                    92.028960E+06
 -------------------------------------------------------------------------------
 # multiplications                           2120
 max memory usage/rank             729.788416E+06
 # max total images/rank                        1
 # max 3D layers                                1
 # MPI messages exchanged                 1899520
 MPI messages size (bytes):
  total size                       202.015296E+06
  min size                           0.000000E+00
  max size                          18.432000E+03
  average size                     106.350708E+00
 MPI breakdown and total messages size (bytes):
             size <=      128             1848749                        0
       128 < size <=     8192               47789                147051072
      8192 < size <=    32768                2982                 54964224
     32768 < size <=   131072                   0                        0
    131072 < size <=  4194304                   0                        0
   4194304 < size <= 16777216                   0                        0
  16777216 < size                               0                        0
 -------------------------------------------------------------------------------
 -                                                                             -
 -                      DBCSR MESSAGE PASSING PERFORMANCE                      -
 -                                                                             -
 -------------------------------------------------------------------------------
 ROUTINE             CALLS      AVE VOLUME [Bytes]
 MP_Bcast               13                     12.
 MP_Allreduce        11113                      8.
 MP_Alltoall          7870                   6166.
 MP_ISend            67808                    460.
 MP_IRecv            67808                     87.
 -------------------------------------------------------------------------------

 -------------------------------------------------------------------------------
 -                                                                             -
 -                                DBM STATISTICS                               -
 -                                                                             -
 -------------------------------------------------------------------------------
    M  x    N  x    K                                          COUNT     PERCENT
 -------------------------------------------------------------------------------

 -------------------------------------------------------------------------------
 -                                                                             -
 -                                GRID STATISTICS                              -
 -                                                                             -
 -------------------------------------------------------------------------------
 LP    KERNEL             BACKEND                              COUNT     PERCENT
 2     collocate ortho    CPU                                   7268      13.55%
 2     integrate ortho    CPU                                   7147      13.32%
 1     collocate ortho    CPU                                   6624      12.35%
 1     integrate ortho    CPU                                   6408      11.95%
 3     integrate ortho    CPU                                   5234       9.76%
 3     collocate ortho    CPU                                   5152       9.60%
 0     collocate ortho    CPU                                   4416       8.23%
 0     integrate ortho    CPU                                   4080       7.61%
 4     integrate ortho    CPU                                   2631       4.90%
 4     collocate ortho    CPU                                   2484       4.63%
 5     integrate ortho    CPU                                    842       1.57%
 5     collocate ortho    CPU                                    736       1.37%
 2     collocate general  CPU                                    182       0.34%
 2     integrate general  CPU                                    170       0.32%
 6     integrate ortho    CPU                                    133       0.25%
 6     collocate ortho    CPU                                     92       0.17%
 0     collocate general  CPU                                     14       0.03%
 0     integrate general  CPU                                     14       0.03%
 3     integrate general  CPU                                     12       0.02%
 7     integrate ortho    CPU                                      6       0.01%
 -------------------------------------------------------------------------------

 MEMORY| Estimated peak process memory [MiB]                                 741

 -------------------------------------------------------------------------------
 ----                             MULTIGRID INFO                            ----
 -------------------------------------------------------------------------------
 count for grid        1:         559519          cutoff [a.u.]          600.00
 count for grid        2:          51136          cutoff [a.u.]          200.00
 count for grid        3:          39691          cutoff [a.u.]           66.67
 count for grid        4:          13323          cutoff [a.u.]           22.22
 count for grid        5:            960          cutoff [a.u.]            7.41
 total gridlevel count  :         664629

 -------------------------------------------------------------------------------
 -                                                                             -
 -                         MESSAGE PASSING PERFORMANCE                         -
 -                                                                             -
 -------------------------------------------------------------------------------

 ROUTINE             CALLS      AVE VOLUME [Bytes]
 MP_Group                6
 MP_Bcast             1033                 356299.
 MP_Allreduce         3282                   5203.
 MP_Sync                55
 MP_Alltoall          2379                2922084.
 MP_SendRecv         35154                 297644.
 MP_ISendRecv        34839                 298568.
 MP_Wait             34839
 MP_comm_split          50
 -------------------------------------------------------------------------------


 -------------------------------------------------------------------------------
 -                                                                             -
 -                           R E F E R E N C E S                               -
 -                                                                             -
 -------------------------------------------------------------------------------
 
 CP2K version 2023.2 (Development Version), the CP2K developers group (2023).
 CP2K is freely available from https://www.cp2k.org/ .

 Kuehne,Thomas D.; Iannuzzi,Marcella; Del Ben,Mauro;
 Rybkin,Vladimir V.; Seewald,Patrick; Stein,Frederick; Laino,Teodoro;
 Khaliullin,Rustam Z.; Schuett,Ole; Schiffmann,Florian; Golze,Dorothea;
 Wilhelm,Jan; Chulkov,Sergey; Bani-Hashemian,Mohammad Hossein;
 Weber,Valery; Borstnik,Urban; Taillefumier,Mathieu;
 Jakobovits,Alice Shoshana; Lazzaro,Alfio; Pabst,Hans; Mueller,Tiziano;
 Schade,Robert; Guidon,Manuel; Andermatt,Samuel; Holmberg,Nico;
 Schenter,Gregory K.; Hehn,Anna; Bussy,Augustin; Belleflamme,Fabian;
 Tabacchi,Gloria; Gloess,Andreas; Lass,Michael; Bethune,Iain;
 Mundy,Christopher J.; Plessl,Christian; Watkins,Matt;
 VandeVondele,Joost; Krack,Matthias; Hutter,Juerg. 
 The Journal of Chemical Physics, 152 (19), (2020). 
 CP2K: An electronic structure and molecular dynamics software package -
 Quickstep: Efficient and accurate electronic structure calculations.
 https://doi.org/10.1063/5.0007045

 Schuett, Ole; Messmer, Peter; Hutter, Juerg; VandeVondele, Joost. 
 Electronic Structure Calculations on Graphics Processing Units, John
 Wiley & Sons, Ltd, 173-190 (2016). 
 GPU-Accelerated Sparse Matrix-Matrix Multiplication for
 Linear Scaling Density Functional Theory.
 https://doi.org/10.1002/9781118670712.ch8

 Heinecke, A; Henry, G; Hutchinson, M; Pabst, H. 
 Proceedings of Intl. Supercomputing Conference, 981-991 (2016). 
 LIBXSMM: Accelerating Small Matrix Multiplications
 by Runtime Code Generation.
 https://doi.org/10.1109/SC.2016.83

 Borstnik, U; VandeVondele, J; Weber, V; Hutter, J. 
 PARALLEL COMPUTING, 40 (5-6), 47-58 (2014). 
 Sparse matrix multiplication: The distributed block-compressed sparse
 row library.
 https://doi.org/10.1016/j.parco.2014.03.012

 Hutter, J; Iannuzzi, M; Schiffmann, F; VandeVondele, J. 
 WIREs Comput Mol Sci., 4 (1), 15-25 (2014). 
 CP2K: atomistic simulations of condensed matter systems.
 https://doi.org/10.1002/wcms.1159

 Kuhne, TD; Krack, M; Mohamed, FR; Parrinello, M. 
 PHYSICAL REVIEW LETTERS, 98 (6), 066401 (2007). 
 Efficient and accurate Car-Parrinello-like approach to
 Born-Oppenheimer molecular dynamics.
 https://doi.org/10.1103/PhysRevLett.98.066401

 Frigo, M; Johnson, SG. 
 PROCEEDINGS OF THE IEEE, 93 (2), 216-231 (2005). 
 The design and implementation of FFTW3.
 https://doi.org/10.1109/JPROC.2004.840301

 Kolafa, J. 
 JOURNAL OF COMPUTATIONAL CHEMISTRY, 25 (3), 335-342 (2004). 
 Time-reversible always stable predictor-corrector method for
 molecular dynamics of polarizable molecules.
 https://doi.org/10.1002/jcc.10385

 VandeVondele, J; Hutter, J. 
 JOURNAL OF CHEMICAL PHYSICS, 118 (10), 4365-4369 (2003). 
 An efficient orbital transformation method for electronic structure
 calculations.
 https://doi.org/10.1063/1.1543154

 Lippert, G; Hutter, J; Parrinello, M. 
 THEORETICAL CHEMISTRY ACCOUNTS, 103 (2), 124-140 (1999). 
 The Gaussian and augmented-plane-wave density functional method for ab
 initio molecular dynamics simulations.
 https://doi.org/10.1007/s002140050523

 Krack, M; Parrinello, M. 
 PHYSICAL CHEMISTRY CHEMICAL PHYSICS, 2 (10), 2105-2112 (2000). 
 All-electron ab-initio molecular dynamics.
 https://doi.org/10.1039/b001167n

 Martyna, GJ; Tuckerman, ME. 
 JOURNAL OF CHEMICAL PHYSICS, 110 (6), 2810-2821 (1999). 
 A reciprocal space based method for treating long range interactions in
 ab initio and force-field-based calculations in clusters.
 https://doi.org/10.1063/1.477923

 Perdew, JP; Burke, K; Ernzerhof, M. 
 PHYSICAL REVIEW LETTERS, 77 (18), 3865-3868 (1996). 
 Generalized gradient approximation made simple.
 https://doi.org/10.1103/PhysRevLett.77.3865


 -------------------------------------------------------------------------------
 -                                                                             -
 -                                T I M I N G                                  -
 -                                                                             -
 -------------------------------------------------------------------------------
 SUBROUTINE                       CALLS  ASD         SELF TIME        TOTAL TIME
                                MAXIMUM       AVERAGE  MAXIMUM  AVERAGE  MAXIMUM
 CP2K                                 1  1.0    0.048    0.088 1617.197 1617.207
 cp_geo_opt                           1  2.0    0.000    0.000 1615.435 1615.438
 geoopt_bfgs                          1  3.0    0.004    0.011 1615.434 1615.438
 cp_eval_at                           7  4.0    0.001    0.005 1614.947 1614.989
 qs_energies                          7  5.9    0.019    0.030 1595.186 1595.286
 scf_env_do_scf                       7  6.9    0.000    0.001 1544.297 1544.343
 qs_forces                            6  5.0    0.008    0.039 1480.066 1480.107
 scf_env_do_scf_inner_loop           85  7.9    0.003    0.013 1433.959 1434.095
 qs_scf_new_mos                      85  8.9    0.000    0.001 1105.083 1105.862
 qs_scf_loop_do_ot                   85  9.9    0.000    0.000 1105.083 1105.861
 dbcsr_multiply_generic            2120 14.0    0.217    0.373 1066.184 1070.607
 ot_scf_mini                         85 10.9    0.001    0.011 1057.537 1058.084
 ot_mini                             85 11.9    0.002    0.019  765.923  766.673
 qs_ot_get_derivative                85 12.9    0.001    0.012  642.713  643.245
 multiply_cannon                   2120 15.0    6.019    6.761  430.570  446.969
 mp_sum_l                         10553 14.6  390.892  403.032  390.892  403.032
 qs_ot_get_derivative_taylor         66 13.9    0.002    0.002  378.987  379.679
 multiply_cannon_loop              2120 16.0    0.571    0.716  358.026  373.129
 multiply_cannon_multrec          16960 17.0  290.558  328.157  290.565  328.164
 rebuild_ks_matrix                   91  9.7    0.000    0.000  269.056  270.182
 qs_ks_build_kohn_sham_matrix        91 10.7    0.024    0.061  269.056  270.181
 qs_ks_update_qs_env                 93  8.9    0.001    0.011  253.827  254.846
 qs_ot_get_p                         93 11.7    0.000    0.000  179.789  180.354
 make_m2s                          4240 15.0    0.040    0.051  159.849  169.055
 make_images                       4240 16.0   12.289   13.180  158.535  166.180
 mp_waitall_1                    204439 17.8  109.069  158.810  109.069  158.810
 pw_transfer                       2100 13.9    0.111    0.151  151.448  152.259
 fft_wrap_pw1pw2                   1827 15.0    0.009    0.021  150.813  151.743
 fft3d_ps                          1827 17.0    6.649    7.327  148.413  149.526
 make_images_sizes                 4240 17.0    0.005    0.015  145.317  149.057
 mp_alltoall_i44                   4240 18.0  145.313  149.054  145.313  149.054
 ot_diis_step                        85 12.9    0.007    0.034  114.690  114.821
 init_scf_loop                        8  7.9    0.000    0.011  107.931  108.046
 qs_rho_update_rho_low               92  9.0    0.002    0.022  101.011  104.164
 qs_ot_get_derivative_diag           19 14.0    0.000    0.000  103.648  104.006
 apply_preconditioner_dbcsr          93 13.9    0.000    0.000   96.277   97.456
 apply_all                           93 14.9    0.001    0.001   96.277   97.456
 mp_alltoall_z22v                  1827 19.0   94.685   96.690   94.685   96.690
 qs_ot_get_orbitals                  85 11.9    0.000    0.000   87.092   87.618
 calculate_rho_elec                  92 10.0    0.229    0.325   83.660   85.865
 fft_wrap_pw1pw2_600               1094 16.4    1.028    1.288   83.882   84.732
 mp_sum_d                          2524 11.7   77.985   83.063   77.985   83.063
 multiply_cannon_metrocomm1       16960 17.0    0.038    0.057   41.104   81.413
 mp_sum_b                          3760 15.3   76.498   77.789   76.498   77.789
 density_rs2pw                       92 11.0    0.004    0.005   75.401   76.801
 sum_up_and_integrate                91 11.7    0.001    0.015   69.109   73.144
 integrate_v_rspace                  91 12.7    0.029    0.127   69.041   73.082
 potential_pw2rs                     91 13.7    0.007    0.018   68.703   69.105
 prepare_preconditioner               8  8.9    0.000    0.000   68.683   68.953
 mp_allgather_i34                  2120 16.0   65.854   68.856   65.854   68.856
 qs_ot_p2m_taylor                    73 12.7    0.001    0.011   61.580   62.705
 dbcsr_complete_redistribute        280 13.2    0.012    0.040   54.900   56.879
 transfer_pw2rs                     553 14.3    0.004    0.024   55.875   56.608
 qs_vxc_create                       91 11.7    0.003    0.015   56.126   56.311
 xc_vxc_pw_create                    91 12.7    0.233    0.350   56.124   56.310
 copy_dbcsr_to_fm                   145 12.1    0.003    0.023   55.184   55.803
 transfer_pw2rs_600                 189 14.6   12.501   13.151   54.498   55.313
 transfer_rs2pw                     558 12.2    0.004    0.005   53.066   54.707
 transfer_rs2pw_600                 190 13.8    7.069    7.781   51.324   53.037
 calculate_dm_sparse                 92 10.8    0.000    0.000   52.083   52.648
 mp_sendrecv_dv                   35154 14.2   45.514   47.480   45.514   47.480
 prepare_gapw_den                    91 11.7    0.013    0.061   46.600   46.670
 x_to_yz                            638 18.3    2.207    2.528   45.900   46.525
 multiply_cannon_metrocomm3       16960 17.0    0.039    0.066   25.657   46.311
 make_preconditioner                  8  9.9    0.000    0.007   45.793   45.988
 yz_to_x                            640 18.2    0.322    0.387   42.779   44.578
 xc_pw_derive                       546 14.7    0.003    0.014   43.590   44.420
 mp_alltoall_z11v                   549 18.3   41.655   42.853   41.655   42.853
 init_scf_run                         7  6.9    0.000    0.006   39.448   39.542
 scf_env_initial_rho_setup            7  7.9    0.000    0.007   39.448   39.541
 dbcsr_dot_sd                       950 13.4    0.002    0.012   37.425   39.353
 cp_dbcsr_sm_fm_multiply             40 10.9    0.001    0.007   38.419   39.007
 put_rho0_on_grid                    91 12.7    0.042    0.099   38.891   38.969
 integrate_vhg0_rspace               91 11.7    0.011    0.445   37.252   37.902
 subspace_eigenvalues_ks_dbcsr       16 10.4    0.000    0.000   37.224   37.458
 qs_ot_p2m_diag                      20 13.0    0.002    0.012   35.891   36.251
 mp_alltoall_i22                    560 14.8   30.435   32.812   30.435   32.812
 dbcsr_new_transposed               779 15.0    0.007    0.024   31.396   32.709
 -------------------------------------------------------------------------------

 The number of warnings for this run is : 0
 
 -------------------------------------------------------------------------------
  **** **** ******  **  PROGRAM ENDED AT                 2023-12-05 17:54:39.581
 ***** ** ***  *** **   PROGRAM RAN ON                               nesh-clk518
 **    ****   ******    PROGRAM RAN BY                                  suphc355
 ***** **    ** ** **   PROGRAM PROCESS ID                                900455
  **** **  *******  **  PROGRAM STOPPED IN /gxfs_work/cau/suphc355/homologes/HX/
                                           opt/Br
