       2
 i =       10, E =      -920.0176090245
 Cl         3.0034974342        4.0000021725        4.0000041401
 Cl         4.9965025658        3.9999978275        3.9999958599
