 operating system is UNIX !
 hostname is         elgar

 dscf (elgar) : TURBOMOLE V7.0( 19819 ) 16 Jun 2015 at 11:29:46
 Copyright (C) 2015 TURBOMOLE GmbH, Karlsruhe


    2024-02-13 11:04:10.256 



                             d s c f - program

                   idea & directorship : reinhart ahlrichs
                   program development : marco haeser
                                         michael baer
                           dft version : oliver treutler


                          quantum chemistry group
                          universitaet  karlsruhe
                                  germany




                          References             
                                                 
          TURBOMOLE:                             
              R. Ahlrichs, M. Baer, M. Haeser, H. Horn, and
              C. Koelmel
              Electronic structure calculations on workstation
              computers: the program system TURBOMOLE
              Chem. Phys. Lett. 162: 165 (1989)
          Density Functional:                              
              O. Treutler and R. Ahlrichs                      
              Efficient Molecular Numerical Integration Schemes
              J. Chem. Phys. 102: 346 (1995)                   
          Parallel Version:                                
              Performance of parallel TURBOMOLE for Density    
              Functional Calculations                          
              M. v. Arnim and R. Ahlrichs                      
              J. Comp. Chem. 19: 1746 (1998)                   
                                         




              +--------------------------------------------------+
              | Atomic coordinate, charge and isotop information |
              +--------------------------------------------------+

                    atomic coordinates            atom    charge  isotop
         -1.34851448    0.00000000   -0.36723389    c      6.000     0
          1.34851448    0.00000000   -0.36723389    c      6.000     0
         -2.65971822    0.00000000    1.96258750    c      6.000     0
         -1.33705869    0.00000000    4.19230117    c      6.000     0
          1.33705869    0.00000000    4.19230117    c      6.000     0
          2.65971822    0.00000000    1.96258750    c      6.000     0
          2.67165471    0.00000000   -2.57471220    n      7.000     0
         -2.67165471    0.00000000   -2.57471220    n      7.000     0
         -1.33982622    0.00000000   -4.66308312    c      6.000     0
          1.33982622    0.00000000   -4.66308312    c      6.000     0
         -2.36641046    0.00000000   -6.44056555    h      1.000     0
          2.36641046    0.00000000   -6.44056555    h      1.000     0
         -4.70524645    0.00000000    1.91415746    h      1.000     0
         -2.34078894    0.00000000    5.97654862    h      1.000     0
          2.34078894    0.00000000    5.97654862    h      1.000     0
          4.70524645    0.00000000    1.91415746    h      1.000     0
 
       center of nuclear mass  :    0.00000000    0.00000000   -0.32414992
       center of nuclear charge:    0.00000000    0.00000000   -0.28898279

              +--------------------------------------------------+
              |               basis set information              |
              +--------------------------------------------------+

              we will work with the 1s 3p 5d 7f 9g ... basis set
              ...i.e. with spherical basis functions...

   type   atoms  prim   cont   basis
   ---------------------------------------------------------------------------
    c        8     46     31   def2-TZVP   [5s3p2d1f|11s6p2d1f]
    n        2     46     31   def2-TZVP   [5s3p2d1f|11s6p2d1f]
    h        6      8      6   def2-TZVP   [3s1p|5s1p]
   ---------------------------------------------------------------------------
   total:   16    508    346
   ---------------------------------------------------------------------------

   total number of primitive shells          :   46
   total number of contracted shells         :  134
   total number of cartesian basis functions :  396
   total number of SCF-basis functions       :  346


 integral neglect threshold       :  0.84E-10
 integral storage threshold THIZE :  0.10E-04
 integral storage threshold THIME :         5


 symmetry group of the molecule :   c2v

 the group has the following generators :
   c2(z)
   mirror plane sigma(xz)

    4 symmetry operations found

 there are 4 real representations :   a1   a2   b1   b2  

 maximum number of shells which are related by symmetry :  2


    mo occupation :
   irrep   mo's   occupied
    a1     120       16
    a2      53        2
    b1     120       13
    b2      53        3
 
 number of basis functions   :          346
 number of occupied orbitals :           34
 
  
           ------------------
           density functional
           ------------------
 PBE0 hybrid functional
 exchange:    3/4 (LDA+PBE) + 1/4 HF
 correlation: LDA (PW) + PBE
 spherical integration : Lebedev's spherical grid
 spherical gridsize    :           6
    i.e. gridpoints    :         974
 value for diffuse not defined
 radial integration    : Chebyshev 2nd kind (scaling 3)
 radial gridsize       :          10
 integration cells     :           8
 partition function    : becke
 partition sharpness   :           3
  

          ------------------------
          nuclear repulsion energy  :   467.118040041    
          ------------------------

 
          -----------------
          -S,T+V- integrals
          -----------------

 1e-integrals will be neglected if expon. factor < 0.843930E-11
 
   Difference densities algorithm switched on.
   The maximal number of linear combinations of
   difference densities is          20 .

 DIIS switched on: error vector is FDS-SDF
 Max. Iterations for DIIS is     :   4
 DIIS matrix (see manual) 
    Scaling factor of diagonals  :  1.200
    threshold for scaling factor :  0.000

 scf convergence criterion : increment of total energy < .1000000D-05
                  and increment of one-electron energy < .1000000D-02


 <geterg> : there is no data group $energy 

  MOs are in ASCII format !


 reading orbital data $scfmo  from file mos . 

 orbital characterization : expanded
 
 mo provided and orthogonalized by Cholesky decomposition

 DSCF restart information will be dumped onto file mos

          Overall gridpoints after grid construction =        138352
 
                                              current damping :  0.700
 ITERATION  ENERGY          1e-ENERGY        2e-ENERGY     NORM[dD(SAO)]  TOL
   1  -416.05059811950    -1474.6562376     591.48759949    0.000D+00 0.842D-10
                            Exc =   -43.939687113661     N = 67.999999835    
          max. resid. norm for Fia-block=  3.104D-01 for orbital     16a1        
          max. resid. fock norm         =  9.670D+00 for orbital     64b1        
          Delta Eig. =   494.9290615512 eV 
 
                                              current damping :  0.650
 ITERATION  ENERGY          1e-ENERGY        2e-ENERGY     NORM[dD(SAO)]  TOL
   2  -417.17026238267    -1482.6931379     598.40483546    0.211D+01 0.699D-10
                            Exc =   -44.351140078671     N = 67.999999861    
          Norm of current diis error:  3.2787    
          max. resid. norm for Fia-block=  1.492D-01 for orbital      1b1        
          max. resid. fock norm         =  1.776D-01 for orbital     19b1        
          Delta Eig. =   206.4493963312 eV 
 
                                              current damping :  0.550
 ITERATION  ENERGY          1e-ENERGY        2e-ENERGY     NORM[dD(SAO)]  TOL
   3  -417.45751807170    -1486.0203807     601.44482258    0.795D+00 0.414D-10
                            Exc =   -44.576374960426     N = 67.999999883    
          Norm of current diis error:  1.8151    
          max. resid. norm for Fia-block=  7.858D-02 for orbital      6b1        
          max. resid. fock norm         =  8.615D-02 for orbital      6a1        
          Delta Eig. =    87.6126316992 eV 
 
                                              current damping :  0.450
 ITERATION  ENERGY          1e-ENERGY        2e-ENERGY     NORM[dD(SAO)]  TOL
   4  -417.56764826197    -1487.6961800     603.01049171    0.425D+00 0.349D-10
                            Exc =   -44.685027109715     N = 67.999999897    
          Norm of current diis error: 0.94652    
          max. resid. norm for Fia-block=  4.479D-02 for orbital     16a1        
          max. resid. fock norm         =  4.700D-02 for orbital     16a1        
          Delta Eig. =    32.9018969916 eV 
 
                                              current damping :  0.350
 ITERATION  ENERGY          1e-ENERGY        2e-ENERGY     NORM[dD(SAO)]  TOL
   5  -417.60475421360    -1488.7110158     603.98822152    0.122D+00 0.309D-10
                            Exc =   -44.751666920747     N = 67.999999905    
          Norm of current diis error: 0.47176    
          max. resid. norm for Fia-block=  2.684D-02 for orbital     16a1        
          max. resid. fock norm         =  2.754D-02 for orbital     16a1        
 mo-orthogonalization: Cholesky decomposition
          Delta Eig. =    11.0261397213 eV 
 
                                              current damping :  0.200
 ITERATION  ENERGY          1e-ENERGY        2e-ENERGY     NORM[dD(SAO)]  TOL
   6  -417.61652193054    -1489.2202509     604.48568895    0.348D-01 0.274D-10
                            Exc =   -44.784177818839     N = 67.999999909    
          Norm of current diis error: 0.22194    
          max. resid. norm for Fia-block=  1.433D-02 for orbital     16a1        
          max. resid. fock norm         =  1.494D-02 for orbital     16a1        
          Delta Eig. =     3.0837229527 eV 
 
                                              current damping :  0.050
 ITERATION  ENERGY          1e-ENERGY        2e-ENERGY     NORM[dD(SAO)]  TOL
   7  -417.61993961333    -1489.4634266     604.72544695    0.168D-01 0.246D-10
                            Exc =   -44.800726424756     N = 67.999999911    
          Norm of current diis error: 0.10213    
          max. resid. norm for Fia-block=  7.923D-03 for orbital     16a1        
          max. resid. fock norm         =  7.954D-03 for orbital     16a1        
          Delta Eig. =     0.6522296163 eV 
 
                                              current damping :  0.050
 ITERATION  ENERGY          1e-ENERGY        2e-ENERGY     NORM[dD(SAO)]  TOL
   8  -417.62090917135    -1489.5606308     604.82168161    0.758D-02 0.224D-10
                            Exc =   -44.806070674127     N = 67.999999912    
          Norm of current diis error: 0.41019E-01
          max. resid. norm for Fia-block=  3.355D-03 for orbital     16a1        
          max. resid. fock norm         =  3.541D-03 for orbital     16a1        
          Delta Eig. =     0.1079595226 eV 
 
                                              current damping :  0.050
 ITERATION  ENERGY          1e-ENERGY        2e-ENERGY     NORM[dD(SAO)]  TOL
   9  -417.62110410914    -1489.6045111     604.86536692    0.323D-02 0.211D-10
                            Exc =   -44.809078006569     N = 67.999999913    
          Norm of current diis error: 0.21767E-01
          max. resid. norm for Fia-block=  1.948D-03 for orbital     16a1        
          max. resid. fock norm         =  2.064D-03 for orbital      4b2        
          Delta Eig. =     0.0599064356 eV 
 
                                              current damping :  0.050
 ITERATION  ENERGY          1e-ENERGY        2e-ENERGY     NORM[dD(SAO)]  TOL
  10  -417.62116032615    -1489.6075492     604.86834886    0.237D-02 0.203D-10
                            Exc =   -44.808737805702     N = 67.999999913    
          Norm of current diis error: 0.10200E-01
          max. resid. norm for Fia-block=  8.777D-04 for orbital     16a1        
          max. resid. fock norm         =  9.986D-04 for orbital     16a1        
 mo-orthogonalization: Cholesky decomposition
          Delta Eig. =     0.0553140349 eV 
 
                                              current damping :  0.050
 ITERATION  ENERGY          1e-ENERGY        2e-ENERGY     NORM[dD(SAO)]  TOL
  11  -417.62117445045    -1489.6173230     604.87810855    0.635D-03 0.199D-10
                            Exc =   -44.809460124272     N = 67.999999913    
          Norm of current diis error: 0.63351E-02
          max. resid. norm for Fia-block=  5.001D-04 for orbital     16a1        
          max. resid. fock norm         =  6.517D-04 for orbital      4b2        
          Delta Eig. =     0.0165473401 eV 
 
                                              current damping :  0.100
 ITERATION  ENERGY          1e-ENERGY        2e-ENERGY     NORM[dD(SAO)]  TOL
  12  -417.62117948568    -1489.6170652     604.87784571    0.331D+00 0.240D-10
                            Exc =   -44.809333999877     N = 67.999999914    
          Norm of current diis error: 0.31631E-02
          max. resid. norm for Fia-block=  3.391D-04 for orbital      3b2        
          max. resid. fock norm         =  3.474D-04 for orbital      4b2        
          Delta Eig. =     0.0061296663 eV 

 ENERGY CONVERGED !

 
                                              current damping :  0.150
 ITERATION  ENERGY          1e-ENERGY        2e-ENERGY     NORM[dD(SAO)]  TOL
  13  -417.62118098225    -1489.6182590     604.87903801    0.195D-03 0.240D-10
                            Exc =   -44.809366549535     N = 67.999999914    
          max. resid. norm for Fia-block=  1.917D-04 for orbital      3b2        
          max. resid. fock norm         =  2.351D-04 for orbital      4b2        

 convergence criteria satisfied after 13 iterations


                  ------------------------------------------ 
                 |  total energy      =   -417.62118098225  |
                  ------------------------------------------ 
                 :  kinetic energy    =    415.56964143888  :
                 :  potential energy  =   -833.19082242113  :
                 :  virial theorem    =      1.99508755869  :
                 :  wavefunction norm =      1.00000000000  :
                  .......................................... 


 <geterg> : there is no data group $energy 


 orbitals $scfmo  will be written to file mos

    irrep                 12a1        13a1        14a1        15a1        16a1  
 eigenvalues H         -0.53161    -0.48994    -0.45476    -0.38426    -0.26619
            eV         -14.4660    -13.3322    -12.3748    -10.4562     -7.2435
 occupation              2.0000      2.0000      2.0000      2.0000      2.0000 

    irrep                 17a1        18a1        19a1        20a1        21a1  
 eigenvalues H          0.05848     0.07555     0.09670     0.11626     0.15697
            eV           1.5912      2.0559      2.6315      3.1635      4.2714

    irrep                  1a2         2a2         3a2         4a2         5a2  
 eigenvalues H         -0.36250    -0.26510    -0.03121     0.07353     0.17527
            eV          -9.8642     -7.2137     -0.8492      2.0010      4.7693
 occupation              2.0000      2.0000 

    irrep                  6a2         7a2         8a2         9a2        10a2  
 eigenvalues H          0.25434     0.29277     0.36614     0.44479     0.57684
            eV           6.9210      7.9668      9.9631     12.1035     15.6968

    irrep                  9b1        10b1        11b1        12b1        13b1  
 eigenvalues H         -0.56254    -0.46381    -0.44659    -0.38357    -0.33122
            eV         -15.3076    -12.6210    -12.1525    -10.4374     -9.0131
 occupation              2.0000      2.0000      2.0000      2.0000      2.0000 

    irrep                 14b1        15b1        16b1        17b1        18b1  
 eigenvalues H          0.08911     0.10927     0.11969     0.18499     0.20399
            eV           2.4248      2.9733      3.2570      5.0339      5.5508

    irrep                  1b2         2b2         3b2         4b2         5b2  
 eigenvalues H         -0.45789    -0.37489    -0.27829    -0.07785     0.00021
            eV         -12.4600    -10.2014     -7.5726     -2.1183      0.0057
 occupation              2.0000      2.0000      2.0000 

    irrep                  6b2         7b2         8b2         9b2        10b2  
 eigenvalues H          0.20152     0.22782     0.28754     0.33772     0.44293
            eV           5.4837      6.1993      7.8244      9.1899     12.0529
 
 
 
 
 ==============================================================================
                           electrostatic moments
 ==============================================================================

 reference point for electrostatic moments:    0.00000   0.00000   0.00000

 
              nuc           elec       ->  total
 ------------------------------------------------------------------------------
                          charge      
 ------------------------------------------------------------------------------
          68.000000     -68.000000      -0.000000
 
 ------------------------------------------------------------------------------
                       dipole moment  
 ------------------------------------------------------------------------------
   x       0.000000       0.000000       0.000000
   y       0.000000       0.000000       0.000000
   z     -19.650830      19.852583       0.201753
 
   | dipole moment | =     0.2018 a.u. =     0.5128 debye 
 
 ------------------------------------------------------------------------------
                     quadrupole moment
 ------------------------------------------------------------------------------
  xx     316.070846    -360.369147     -44.298301
  yy       0.000000     -44.641056     -44.641056
  zz     774.212159    -807.504680     -33.292521
  xy       0.000000       0.000000       0.000000
  xz      -0.000000       0.000000       0.000000
  yz       0.000000       0.000000       0.000000
 
     1/3  trace=     -40.743959
     anisotropy=      11.181099
 
 ==============================================================================
 
 


    ------------------------------------------------------------------------
         total  cpu-time :  4 minutes and 20 seconds
         total wall-time :  4 minutes and 21 seconds
    ------------------------------------------------------------------------


   ****  dscf : all done  ****


    2024-02-13 11:08:31.124 

