 operating system is UNIX !
 hostname is         elgar

 escf (elgar) : TURBOMOLE V7.0( 19819 ) 16 Jun 2015 at 11:29:46
 Copyright (C) 2015 TURBOMOLE GmbH, Karlsruhe


    2024-02-13 13:08:06.139 




                                e s c f

                       quantum chemistry group
                       university of karlsruhe
                               germany


          integral direct evaluation of 

                    * excitation energies and transition moments 
                    * dynamic response properties 
                    * stabilities



          references (see also programs dscf and ridft) 

          implementation and benchmarks (review) 
          F. Furche and D. Rappoport,  
          "Density functional methods for excited states: 
          equilibrium structure and electronic spectra",
          ch. III of "Computational Photochemistry", ed. by 
          M. Olivucci, vol. 16 of "Theoretical and Computational 
          Chemistry", Elsevier, Amsterdam, 2005.

          two-component TDDFT with spin-orbit coupling 
          M. Kuehn and F. Weigend, 
          J. Chem. Theory Comput. 9 (2013), 5341.

          GW quasi particle energies
          M. J. van Setten, F. Weigend, and F. Evers,
          J. Chem. Theory Comput. 9 (2013), 232.

          Current-density dependent meta-GGA Linear Response
          J. E. Bates and F. Furche, 
          J. Chem. Phys. 137 (2012), 164105.

          spin-flip method 
          M. Kuehn and F. Weigend, 
          Chem. Phys. Chem. 12 (2011), 3331.

          RI-J method 
          R. Bauernschmitt, M. Haeser, O. Treutler, and R. Ahlrichs,
          Chem. Phys. Lett. 264 (1997), 573.

          density functional implementation               
          R. Bauernschmitt and R. Ahlrichs,
          Chem. Phys. Lett. 256 (1996), 454.
          R. Bauernschmitt and R. Ahlrichs,
          J. Chem. Phys. 104 (1996), 9047.

          UHF extension (RPA and CIS)
          C. Ochsenfeld, J. Gauss, and R. Ahlrichs, 
          J. Chem. Phys. 103 (1995), 7401.

          integral direct algorithm                 
          H. Weiss, R. Ahlrichs, and M. Haeser, 
          J. Chem. Phys. 99 (1993), 1262.
                                     




              +--------------------------------------------------+
              | Atomic coordinate, charge and isotop information |
              +--------------------------------------------------+

                    atomic coordinates            atom    charge  isotop
         -1.34851448    0.00000000   -0.36723389    c      6.000     0
          1.34851448    0.00000000   -0.36723389    c      6.000     0
         -2.65971822    0.00000000    1.96258750    c      6.000     0
         -1.33705869    0.00000000    4.19230117    c      6.000     0
          1.33705869    0.00000000    4.19230117    c      6.000     0
          2.65971822    0.00000000    1.96258750    c      6.000     0
          2.67165471    0.00000000   -2.57471220    n      7.000     0
         -2.67165471    0.00000000   -2.57471220    n      7.000     0
         -1.33982622    0.00000000   -4.66308312    c      6.000     0
          1.33982622    0.00000000   -4.66308312    c      6.000     0
         -2.36641046    0.00000000   -6.44056555    h      1.000     0
          2.36641046    0.00000000   -6.44056555    h      1.000     0
         -4.70524645    0.00000000    1.91415746    h      1.000     0
         -2.34078894    0.00000000    5.97654862    h      1.000     0
          2.34078894    0.00000000    5.97654862    h      1.000     0
          4.70524645    0.00000000    1.91415746    h      1.000     0
 
       center of nuclear mass  :    0.00000000    0.00000000   -0.32414992
       center of nuclear charge:    0.00000000    0.00000000   -0.28898279

              +--------------------------------------------------+
              |               basis set information              |
              +--------------------------------------------------+

              we will work with the 1s 3p 5d 7f 9g ... basis set
              ...i.e. with spherical basis functions...

   type   atoms  prim   cont   basis
   ---------------------------------------------------------------------------
    c        8     46     31   def2-TZVP   [5s3p2d1f|11s6p2d1f]
    n        2     46     31   def2-TZVP   [5s3p2d1f|11s6p2d1f]
    h        6      8      6   def2-TZVP   [3s1p|5s1p]
   ---------------------------------------------------------------------------
   total:   16    508    346
   ---------------------------------------------------------------------------

   total number of primitive shells          :   46
   total number of contracted shells         :  134
   total number of cartesian basis functions :  396
   total number of SCF-basis functions       :  346


 residuum convergence criterium   :  0.10E-04


 integral neglect threshold       :  0.84E-11
 integral storage threshold THIZE :  0.10E-04
 integral storage threshold THIME :         5

 CI SINGLES SINGLET-CALCULATION (TAMM-DANCOFF-APPROXIMATION)
 
             FOUND DFT-FLAG !
 

 symmetry group of the molecule :   c2v

 the group has the following generators :
   c2(z)
   mirror plane sigma(xz)

    4 symmetry operations found

 there are 4 real representations :   a1   a2   b1   b2  

 maximum number of shells which are related by symmetry :  2

 IRREPs of excited states :   a1   a2   b1   b2  
 

 determining totally symmetric integral contributions 
    - equivalent to irreducible tensor elements - 
 which can be formed within each triple of representations :

             representation triple      contributions

              a1    a1    a1              1
              a1    a2    a2              1
              a1    b1    b1              1
              a1    b2    b2              1
              a2    a1    a2              1
              a2    a2    a1              1
              a2    b1    b2              1
              a2    b2    b1              1
              b1    a1    b1              1
              b1    a2    b2              1
              b1    b1    a1              1
              b1    b2    a2              1
              b2    a1    b2              1
              b2    a2    b1              1
              b2    b1    a2              1
              b2    b2    a1              1

    mo occupation :
   irrep   mo's   occupied
    a1     120       16
    a2      53        2
    b1     120       13
    b2      53        3
 
 number of basis functions   :          346
 number of occupied orbitals :           34
 
  
           ------------------
           density functional
           ------------------
 PBE0 hybrid functional
 exchange:    3/4 (LDA+PBE) + 1/4 HF
 correlation: LDA (PW) + PBE
 spherical integration : Lebedev's spherical grid
 spherical gridsize    :           6
    i.e. gridpoints    :         974
 value for diffuse not defined
 radial integration    : Chebyshev 2nd kind (scaling 3)
 radial gridsize       :          10
 integration cells     :           8
 partition function    : becke
 partition sharpness   :           3
  

 biggest AO integral is expected to be     6.862573055
  MOs are in ASCII format !


 reading orbital data $scfmo  from file mos . 

 orbital characterization : scfconv=6
 
 preparing numerical integration ....
          Overall gridpoints after grid construction =        138352

 Calculating ground state density on molecular grid

 Integral of ground state density: N =   67.99999991392920    


 all orbitals will be included in the transformation

 number of non-frozen orbitals          :   346
 number of non-frozen occupied orbitals :    34



 dimension of super-tensorspace: 1

          IRREP   tensor space dimension   number of roots

           a1             3307                  10
           a2             1995                  10
           b1             3317                  10
           b2             1989                  10

 maximum number of Davidson iterations set to   25


 machine precision: 2.22D-16


 logfile ciss_a1   will be constructed

 logfile ciss_a2   will be constructed

 logfile ciss_b1   will be constructed

 logfile ciss_b2   will be constructed


                       Block Davidson iteration


 total number of roots to be determined:  40


 maximum core memory set to   338 MB,
 corresponding to      278 vectors in CAO basis


 maximum number of simultaneously treated vectors (including degeneracy):       72


 Iteration IRREP Converged      Max. Euclidean
                 roots          residual norm

    1       a1       0        1.337745925148280D-01
            a2       0        6.668927556333271D-02
            b1       0        1.778279243094322D-01
            b2       0        5.572482697110095D-02
 
    2       a1       0        3.232089754663095D-02
            a2       0        8.855174326569997D-03
            b1       0        5.339262695212949D-02
            b2       0        1.113118576461399D-02
 
    3       a1       0        9.986659614310158D-03
            a2       0        1.576226372586372D-03
            b1       0        9.319782586138919D-03
            b2       0        2.423403218799712D-03
 
    4       a1       0        1.513381796642597D-03
            a2       0        3.799973876122274D-04
            b1       0        1.504740600619033D-03
            b2       0        2.508549962915069D-04
 
    5       a1       2        2.657877858522351D-04
            a2       8        4.144842038221729D-05
            b1       1        2.018722333062890D-04
            b2       5        3.237892620114546D-05
 
    6       a1       8        3.810655117444603D-05
            a2      10        9.698405534688735D-06
            b1       6        2.634811572158102D-05
            b2      10        9.295348496835746D-06
 
    7       a1      10        9.223541162659060D-06
            a2      10        9.698405534688735D-06
            b1      10        4.913525936503714D-06
            b2      10        9.295348496835746D-06
 

 converged!

 Eigenpairs written on logfile ciss_a1  

 Eigenpairs written on logfile ciss_a2  

 Eigenpairs written on logfile ciss_b1  

 Eigenpairs written on logfile ciss_b2  



 IRREP   Vector     Eigenvalue           Euclidean residual norm

  a1        1    1.692045802013397D-01    7.531019089140432D-06
            2    2.251185484733322D-01    1.574119790645404D-06
            3    2.541998453708507D-01    2.118903966482354D-06
            4    2.646976050312738D-01    9.673856413732893D-07
            5    2.928100057843734D-01    9.223541162659060D-06
            6    2.993845596485941D-01    1.375395891413692D-06
            7    3.011542980735632D-01    3.042953062344446D-06
            8    3.157506086325191D-01    2.622372208720008D-06
            9    3.293140605890343D-01    1.712473197602258D-06
           10    3.430861852598883D-01    4.399715034431632D-06

  a2        1    1.778921376979158D-01    7.979593969383244D-07
            2    1.955277594879469D-01    3.288472207897268D-06
            3    2.523797299662309D-01    5.017551685294904D-06
            4    2.801100515608795D-01    5.246132900301537D-06
            5    2.822826712458373D-01    9.131677821758568D-06
            6    2.875444371670161D-01    9.698405534688735D-06
            7    3.001784509474166D-01    8.473374302106630D-06
            8    3.079132606550443D-01    9.166205386071343D-06
            9    3.107011871585845D-01    3.701208961072047D-06
           10    3.185843706148067D-01    2.397772044751514D-06

  b1        1    1.621321567856840D-01    4.913525936503714D-06
            2    2.285932351023202D-01    1.061886368729492D-06
            3    2.567596364751901D-01    1.506006849928565D-06
            4    2.717303655489844D-01    9.068257904509314D-07
            5    3.075116900734095D-01    1.489772083466850D-06
            6    3.214055444186764D-01    2.688043968739184D-06
            7    3.299644302703960D-01    2.547738602472544D-06
            8    3.323835473768377D-01    1.273966588934295D-06
            9    3.384801424851498D-01    1.175564353405678D-06
           10    3.558835630208635D-01    2.303493406082838D-06

  b2        1    1.312158048971515D-01    1.802883409491331D-06
            2    2.158721393631897D-01    2.901537316138330D-06
            3    2.460862590856704D-01    5.031718576612777D-06
            4    2.579645168900020D-01    4.236256535767373D-06
            5    2.962934442140744D-01    2.462337523723685D-06
            6    2.986328121130897D-01    1.954915520106016D-06
            7    3.110141905216448D-01    1.675968579760157D-06
            8    3.141100868017577D-01    9.295348496835746D-06
            9    3.186627947521344D-01    3.230192743031635D-06
           10    3.282245157842981D-01    2.687600026283958D-06
 




                    Selection rules for point group c2v 


 Subduction with respect to c2v :

    Polar vector representation: a1, b1, b2                  

    Axial vector representation: a2, b1, b2                  

    Symmetric second rank tensor representation: a1, a2, b1, b2              




                            Ground state


 Total energy:                           -417.6211809823000    

 Charge:

               elec          nuc         total

           -68.000000    68.000000     0.000000


 Electric dipole moment:

               elec          nuc         total   

    x        0.000000     0.000000     0.000000    Norm:              0.201753
    y        0.000000     0.000000     0.000000
    z       19.852583   -19.650830     0.201753    Norm / debye:      0.512809


 Electric quadrupole moment:

               elec          nuc         total   

   xx     -360.369147   316.070846   -44.298301
   yy      -44.641056     0.000000   -44.641056    1/3*trace:       -40.743959
   zz     -807.504680   774.212159   -33.292521
   xy        0.000000     0.000000     0.000000
   xz        0.000000    -0.000000    -0.000000    Anisotropy:       11.181099
   yz        0.000000     0.000000     0.000000



 ==============================================================================

                              I R R E P   a1  

 ==============================================================================


 Excitation is electric dipole allowed

 Excitation is magnetic dipole forbidden

 Excitation is electric quadrupole allowed




                         1 singlet a1 excitation


 Total energy:                           -417.4519764020987    

 Excitation energy:                      0.1692045802013397    

 Excitation energy / eV:                  4.604292865637192    

 Excitation energy / nm:                  269.2796649226831    

 Excitation energy / cm^(-1):             37136.11275243756    


 Oscillator strength:

    velocity representation:             0.6712746778023202E-03

    length representation:               0.7280860782801964E-01

    mixed representation:                0.6991035313956680E-02


 Rotatory strength:

    velocity representation:              0.000000000000000    

    velocity rep. / 10^(-40)erg*cm^3:     0.000000000000000    

    length representation:                0.000000000000000    

    length rep. / 10^(-40)erg*cm^3:       0.000000000000000    


 Dominant contributions:

    occ. orbital  energy / eV   virt. orbital  energy / eV   |coeff.|^2*100
       3 b2         -7.57           4 b2         -2.12           65.2
       2 a2         -7.21           3 a2         -0.85           32.6
 

 Change of electron number:

            -0.000000


 Electric transition dipole moment (velocity rep.):

    x        0.000000        Norm:                  0.077142
    y        0.000000
    z        0.077142        Norm / debye:          0.196076


 Electric transition dipole moment (length rep.):

    x        0.000000        Norm:                  0.803398
    y        0.000000
    z       -0.803398        Norm / debye:          2.042050


 Magnetic transition dipole moment / i:

    x        0.000000        Norm:                  0.000000
    y        0.000000
    z        0.000000        Norm / Bohr mag.:      0.000000


 Electric quadrupole transition moment:

   xx        0.068268
   yy        0.012975        1/3*trace:             0.599466
   zz        1.717155
   xy        0.000000
   xz        0.000000        Anisotropy:            1.677217
   yz        0.000000




                         2 singlet a1 excitation


 Total energy:                           -417.3960624338267    

 Excitation energy:                      0.2251185484733322    

 Excitation energy / eV:                  6.125790007723192    

 Excitation energy / nm:                  202.3971501637391    

 Excitation energy / cm^(-1):             49407.81028990464    


 Oscillator strength:

    velocity representation:             0.2324211977637126E-01

    length representation:               0.6182205590624917    

    mixed representation:                0.1198697471505869    


 Rotatory strength:

    velocity representation:              0.000000000000000    

    velocity rep. / 10^(-40)erg*cm^3:     0.000000000000000    

    length representation:                0.000000000000000    

    length rep. / 10^(-40)erg*cm^3:       0.000000000000000    


 Dominant contributions:

    occ. orbital  energy / eV   virt. orbital  energy / eV   |coeff.|^2*100
       3 b2         -7.57           5 b2          0.01           36.2
       2 a2         -7.21           3 a2         -0.85           36.0
       3 b2         -7.57           4 b2         -2.12           18.7
 

 Change of electron number:

             0.000000


 Electric transition dipole moment (velocity rep.):

    x        0.000000        Norm:                  0.393530
    y        0.000000
    z       -0.393530        Norm / debye:          1.000261


 Electric transition dipole moment (length rep.):

    x        0.000000        Norm:                  2.029606
    y        0.000000
    z       -2.029606        Norm / debye:          5.158783


 Magnetic transition dipole moment / i:

    x        0.000000        Norm:                  0.000000
    y        0.000000
    z        0.000000        Norm / Bohr mag.:      0.000000


 Electric quadrupole transition moment:

   xx       -0.342767
   yy        0.015030        1/3*trace:             0.612653
   zz        2.165696
   xy        0.000000
   xz        0.000000        Anisotropy:            2.350082
   yz        0.000000




                         3 singlet a1 excitation


 Total energy:                           -417.3669811369292    

 Excitation energy:                      0.2541998453708507    

 Excitation energy / eV:                  6.917132698738960    

 Excitation energy / nm:                  179.2422516761483    

 Excitation energy / cm^(-1):             55790.41718676457    


 Oscillator strength:

    velocity representation:             0.7798086781784618E-01

    length representation:               0.8105142679826027    

    mixed representation:                0.2514052624668578    


 Rotatory strength:

    velocity representation:              0.000000000000000    

    velocity rep. / 10^(-40)erg*cm^3:     0.000000000000000    

    length representation:                0.000000000000000    

    length rep. / 10^(-40)erg*cm^3:       0.000000000000000    


 Dominant contributions:

    occ. orbital  energy / eV   virt. orbital  energy / eV   |coeff.|^2*100
       3 b2         -7.57           5 b2          0.01           50.3
       2 a2         -7.21           3 a2         -0.85           22.8
       2 b2        -10.20           4 b2         -2.12           12.1
       3 b2         -7.57           4 b2         -2.12            8.0
 

 Change of electron number:

            -0.000000


 Electric transition dipole moment (velocity rep.):

    x        0.000000        Norm:                  0.678347
    y        0.000000
    z        0.678347        Norm / debye:          1.724200


 Electric transition dipole moment (length rep.):

    x        0.000000        Norm:                  2.186947
    y        0.000000
    z        2.186947        Norm / debye:          5.558708


 Magnetic transition dipole moment / i:

    x        0.000000        Norm:                  0.000000
    y        0.000000
    z        0.000000        Norm / Bohr mag.:      0.000000


 Electric quadrupole transition moment:

   xx        0.468669
   yy        0.158134        1/3*trace:             0.313586
   zz        0.313955
   xy        0.000000
   xz        0.000000        Anisotropy:            0.268931
   yz        0.000000




                         4 singlet a1 excitation


 Total energy:                           -417.3564833772687    

 Excitation energy:                      0.2646976050312738    

 Excitation energy / eV:                  7.202791395756178    

 Excitation energy / nm:                  172.1336037574527    

 Excitation energy / cm^(-1):             58094.40911141328    


 Oscillator strength:

    velocity representation:             0.1497003182565977E-01

    length representation:               0.1587728507522631    

    mixed representation:                0.4875279098484627E-01


 Rotatory strength:

    velocity representation:              0.000000000000000    

    velocity rep. / 10^(-40)erg*cm^3:     0.000000000000000    

    length representation:                0.000000000000000    

    length rep. / 10^(-40)erg*cm^3:       0.000000000000000    


 Dominant contributions:

    occ. orbital  energy / eV   virt. orbital  energy / eV   |coeff.|^2*100
       2 b2        -10.20           4 b2         -2.12           69.4
       1 a2         -9.86           3 a2         -0.85           11.1
       2 a2         -7.21           4 a2          2.00           10.3
 

 Change of electron number:

            -0.000000


 Electric transition dipole moment (velocity rep.):

    x        0.000000        Norm:                  0.291261
    y        0.000000
    z        0.291261        Norm / debye:          0.740317


 Electric transition dipole moment (length rep.):

    x        0.000000        Norm:                  0.948547
    y        0.000000
    z        0.948547        Norm / debye:          2.410984


 Magnetic transition dipole moment / i:

    x        0.000000        Norm:                  0.000000
    y        0.000000
    z        0.000000        Norm / Bohr mag.:      0.000000


 Electric quadrupole transition moment:

   xx       -1.270810
   yy        0.108260        1/3*trace:             0.425786
   zz        2.439908
   xy        0.000000
   xz        0.000000        Anisotropy:            3.248680
   yz        0.000000




                         5 singlet a1 excitation


 Total energy:                           -417.3283709765157    

 Excitation energy:                      0.2928100057843734    

 Excitation energy / eV:                  7.967769069938577    

 Excitation energy / nm:                  155.6072257091961    

 Excitation energy / cm^(-1):             64264.36788479023    


 Oscillator strength:

    velocity representation:             0.3430617914426710E-01

    length representation:               0.7601651504759385E-01

    mixed representation:                0.5106697742323928E-01


 Rotatory strength:

    velocity representation:              0.000000000000000    

    velocity rep. / 10^(-40)erg*cm^3:     0.000000000000000    

    length representation:                0.000000000000000    

    length rep. / 10^(-40)erg*cm^3:       0.000000000000000    


 Dominant contributions:

    occ. orbital  energy / eV   virt. orbital  energy / eV   |coeff.|^2*100
      16 a1         -7.24          17 a1          1.59           74.2
      16 a1         -7.24          18 a1          2.06           17.8
 

 Change of electron number:

            -0.000000


 Electric transition dipole moment (velocity rep.):

    x        0.000000        Norm:                  0.419217
    y        0.000000
    z       -0.419217        Norm / debye:          1.065551


 Electric transition dipole moment (length rep.):

    x        0.000000        Norm:                  0.624032
    y        0.000000
    z       -0.624032        Norm / debye:          1.586142


 Magnetic transition dipole moment / i:

    x        0.000000        Norm:                  0.000000
    y        0.000000
    z        0.000000        Norm / Bohr mag.:      0.000000


 Electric quadrupole transition moment:

   xx       -2.457648
   yy       -0.128838        1/3*trace:             0.610126
   zz        4.416863
   xy        0.000000
   xz        0.000000        Anisotropy:            6.055809
   yz        0.000000




                         6 singlet a1 excitation


 Total energy:                           -417.3217964226514    

 Excitation energy:                      0.2993845596485941    

 Excitation energy / eV:                  8.146671859778891    

 Excitation energy / nm:                  152.1900552035164    

 Excitation energy / cm^(-1):             65707.31566615732    


 Oscillator strength:

    velocity representation:             0.3538764497753271E-01

    length representation:               0.1259054669343334    

    mixed representation:                0.6674951658703361E-01


 Rotatory strength:

    velocity representation:              0.000000000000000    

    velocity rep. / 10^(-40)erg*cm^3:     0.000000000000000    

    length representation:                0.000000000000000    

    length rep. / 10^(-40)erg*cm^3:       0.000000000000000    


 Dominant contributions:

    occ. orbital  energy / eV   virt. orbital  energy / eV   |coeff.|^2*100
      16 a1         -7.24          18 a1          2.06           44.5
       2 a2         -7.21           4 a2          2.00           22.1
       1 a2         -9.86           3 a2         -0.85           22.1
      16 a1         -7.24          19 a1          2.63            4.3
 

 Change of electron number:

             0.000000


 Electric transition dipole moment (velocity rep.):

    x        0.000000        Norm:                  0.421072
    y        0.000000
    z       -0.421072        Norm / debye:          1.070267


 Electric transition dipole moment (length rep.):

    x        0.000000        Norm:                  0.794243
    y        0.000000
    z       -0.794243        Norm / debye:          2.018779


 Magnetic transition dipole moment / i:

    x        0.000000        Norm:                  0.000000
    y        0.000000
    z        0.000000        Norm / Bohr mag.:      0.000000


 Electric quadrupole transition moment:

   xx       -0.004910
   yy       -0.320250        1/3*trace:             1.136533
   zz        3.734758
   xy        0.000000
   xz        0.000000        Anisotropy:            3.906894
   yz        0.000000




                         7 singlet a1 excitation


 Total energy:                           -417.3200266842264    

 Excitation energy:                      0.3011542980735632    

 Excitation energy / eV:                  8.194828913177997    

 Excitation energy / nm:                  151.2957077201342    

 Excitation energy / cm^(-1):             66095.72835341301    


 Oscillator strength:

    velocity representation:             0.3838375603350210E-02

    length representation:               0.7852259089508518E-01

    mixed representation:                0.1736085243309050E-01


 Rotatory strength:

    velocity representation:              0.000000000000000    

    velocity rep. / 10^(-40)erg*cm^3:     0.000000000000000    

    length representation:                0.000000000000000    

    length rep. / 10^(-40)erg*cm^3:       0.000000000000000    


 Dominant contributions:

    occ. orbital  energy / eV   virt. orbital  energy / eV   |coeff.|^2*100
      16 a1         -7.24          18 a1          2.06           28.4
       1 a2         -9.86           3 a2         -0.85           25.6
      16 a1         -7.24          17 a1          1.59           20.5
       2 a2         -7.21           4 a2          2.00           17.6
 

 Change of electron number:

            -0.000000


 Electric transition dipole moment (velocity rep.):

    x        0.000000        Norm:                  0.138269
    y        0.000000
    z       -0.138269        Norm / debye:          0.351447


 Electric transition dipole moment (length rep.):

    x        0.000000        Norm:                  0.625386
    y        0.000000
    z       -0.625386        Norm / debye:          1.589586


 Magnetic transition dipole moment / i:

    x        0.000000        Norm:                  0.000000
    y        0.000000
    z        0.000000        Norm / Bohr mag.:      0.000000


 Electric quadrupole transition moment:

   xx       -0.200123
   yy        0.093564        1/3*trace:            -0.144868
   zz       -0.328044
   xy        0.000000
   xz        0.000000        Anisotropy:            0.374412
   yz        0.000000




                         8 singlet a1 excitation


 Total energy:                           -417.3054303736675    

 Excitation energy:                      0.3157506086325191    

 Excitation energy / eV:                  8.592014902418100    

 Excitation energy / nm:                  144.3017096857860    

 Excitation energy / cm^(-1):             69299.24822292237    


 Oscillator strength:

    velocity representation:             0.1830049740213013E-01

    length representation:               0.1140134305950659E-01

    mixed representation:                0.1444473084004318E-01


 Rotatory strength:

    velocity representation:              0.000000000000000    

    velocity rep. / 10^(-40)erg*cm^3:     0.000000000000000    

    length representation:                0.000000000000000    

    length rep. / 10^(-40)erg*cm^3:       0.000000000000000    


 Dominant contributions:

    occ. orbital  energy / eV   virt. orbital  energy / eV   |coeff.|^2*100
      16 a1         -7.24          19 a1          2.63           83.1
      16 a1         -7.24          18 a1          2.06            5.7
       2 a2         -7.21           4 a2          2.00            3.1
 

 Change of electron number:

            -0.000000


 Electric transition dipole moment (velocity rep.):

    x        0.000000        Norm:                  0.294853
    y        0.000000
    z        0.294853        Norm / debye:          0.749446


 Electric transition dipole moment (length rep.):

    x        0.000000        Norm:                  0.232730
    y        0.000000
    z        0.232730        Norm / debye:          0.591544


 Magnetic transition dipole moment / i:

    x        0.000000        Norm:                  0.000000
    y        0.000000
    z        0.000000        Norm / Bohr mag.:      0.000000


 Electric quadrupole transition moment:

   xx       -1.491266
   yy       -0.360518        1/3*trace:            -0.550971
   zz        0.198872
   xy        0.000000
   xz        0.000000        Anisotropy:            1.491321
   yz        0.000000




                         9 singlet a1 excitation


 Total energy:                           -417.2918669217110    

 Excitation energy:                      0.3293140605890343    

 Excitation energy / eV:                  8.961095367039597    

 Excitation energy / nm:                  138.3583579106892    

 Excitation energy / cm^(-1):             72276.08183209573    


 Oscillator strength:

    velocity representation:             0.2967209866962403E-02

    length representation:               0.6279605371254813E-02

    mixed representation:                0.4316585110734802E-02


 Rotatory strength:

    velocity representation:              0.000000000000000    

    velocity rep. / 10^(-40)erg*cm^3:     0.000000000000000    

    length representation:                0.000000000000000    

    length rep. / 10^(-40)erg*cm^3:       0.000000000000000    


 Dominant contributions:

    occ. orbital  energy / eV   virt. orbital  energy / eV   |coeff.|^2*100
       2 b2        -10.20           5 b2          0.01           28.2
       2 a2         -7.21           4 a2          2.00           17.7
       1 a2         -9.86           3 a2         -0.85           17.2
       1 b2        -12.46           4 b2         -2.12           12.0
       2 b2        -10.20           4 b2         -2.12            6.3
      16 a1         -7.24          19 a1          2.63            6.2
       3 b2         -7.57           5 b2          0.01            5.1
 

 Change of electron number:

             0.000000


 Electric transition dipole moment (velocity rep.):

    x        0.000000        Norm:                  0.116256
    y        0.000000
    z       -0.116256        Norm / debye:          0.295495


 Electric transition dipole moment (length rep.):

    x        0.000000        Norm:                  0.169125
    y        0.000000
    z       -0.169125        Norm / debye:          0.429875


 Magnetic transition dipole moment / i:

    x        0.000000        Norm:                  0.000000
    y        0.000000
    z        0.000000        Norm / Bohr mag.:      0.000000


 Electric quadrupole transition moment:

   xx       -0.967588
   yy        0.328404        1/3*trace:             2.379303
   zz        7.777094
   xy        0.000000
   xz        0.000000        Anisotropy:            8.174107
   yz        0.000000




                        10 singlet a1 excitation


 Total energy:                           -417.2780947970401    

 Excitation energy:                      0.3430861852598883    

 Excitation energy / eV:                  9.335854107560836    

 Excitation energy / nm:                  132.8043932328132    

 Excitation energy / cm^(-1):             75298.71380818577    


 Oscillator strength:

    velocity representation:             0.1750668566358787E-01

    length representation:               0.1108132260538044    

    mixed representation:                0.4404511682232276E-01


 Rotatory strength:

    velocity representation:              0.000000000000000    

    velocity rep. / 10^(-40)erg*cm^3:     0.000000000000000    

    length representation:                0.000000000000000    

    length rep. / 10^(-40)erg*cm^3:       0.000000000000000    


 Dominant contributions:

    occ. orbital  energy / eV   virt. orbital  energy / eV   |coeff.|^2*100
       2 b2        -10.20           5 b2          0.01           55.6
       1 b2        -12.46           4 b2         -2.12           16.7
       2 a2         -7.21           4 a2          2.00           10.6
      16 a1         -7.24          20 a1          3.16            3.6
       2 b2        -10.20           4 b2         -2.12            2.2
       1 a2         -9.86           4 a2          2.00            1.7
 

 Change of electron number:

            -0.000000


 Electric transition dipole moment (velocity rep.):

    x        0.000000        Norm:                  0.276660
    y        0.000000
    z        0.276660        Norm / debye:          0.703204


 Electric transition dipole moment (length rep.):

    x        0.000000        Norm:                  0.696049
    y        0.000000
    z        0.696049        Norm / debye:          1.769193


 Magnetic transition dipole moment / i:

    x        0.000000        Norm:                  0.000000
    y        0.000000
    z        0.000000        Norm / Bohr mag.:      0.000000


 Electric quadrupole transition moment:

   xx       -1.375614
   yy       -0.003853        1/3*trace:             1.266596
   zz        5.179255
   xy        0.000000
   xz        0.000000        Anisotropy:            5.988015
   yz        0.000000



 ==============================================================================

                              I R R E P   a2  

 ==============================================================================


 Excitation is electric dipole forbidden

 Excitation is magnetic dipole allowed

 Excitation is electric quadrupole allowed




                         1 singlet a2 excitation


 Total energy:                           -417.4432888446021    

 Excitation energy:                      0.1778921376979158    

 Excitation energy / eV:                  4.840693434426180    

 Excitation energy / nm:                  256.1290973824405    

 Excitation energy / cm^(-1):             39042.81122568363    


 Oscillator strength:

    velocity representation:              0.000000000000000    

    length representation:                0.000000000000000    

    mixed representation:                 0.000000000000000    


 Rotatory strength:

    velocity representation:              0.000000000000000    

    velocity rep. / 10^(-40)erg*cm^3:     0.000000000000000    

    length representation:                0.000000000000000    

    length rep. / 10^(-40)erg*cm^3:       0.000000000000000    


 Dominant contributions:

    occ. orbital  energy / eV   virt. orbital  energy / eV   |coeff.|^2*100
      16 a1         -7.24           3 a2         -0.85           97.2
 

 Change of electron number:

             0.000000


 Electric transition dipole moment (velocity rep.):

    x        0.000000        Norm:                  0.000000
    y        0.000000
    z        0.000000        Norm / debye:          0.000000


 Electric transition dipole moment (length rep.):

    x        0.000000        Norm:                  0.000000
    y        0.000000
    z        0.000000        Norm / debye:          0.000000


 Magnetic transition dipole moment / i:

    x        0.000000        Norm:                  0.000777
    y        0.000000
    z        0.000777        Norm / Bohr mag.:      0.212822


 Electric quadrupole transition moment:

   xx        0.000000
   yy        0.000000        1/3*trace:             0.000000
   zz        0.000000
   xy        0.301054
   xz        0.000000        Anisotropy:            0.521440
   yz        0.000000




                         2 singlet a2 excitation


 Total energy:                           -417.4256532228121    

 Excitation energy:                      0.1955277594879469    

 Excitation energy / eV:                  5.320583325659000    

 Excitation energy / nm:                  233.0275393085998    

 Excitation energy / cm^(-1):             42913.38280521557    


 Oscillator strength:

    velocity representation:              0.000000000000000    

    length representation:                0.000000000000000    

    mixed representation:                 0.000000000000000    


 Rotatory strength:

    velocity representation:              0.000000000000000    

    velocity rep. / 10^(-40)erg*cm^3:     0.000000000000000    

    length representation:                0.000000000000000    

    length rep. / 10^(-40)erg*cm^3:       0.000000000000000    


 Dominant contributions:

    occ. orbital  energy / eV   virt. orbital  energy / eV   |coeff.|^2*100
      13 b1         -9.01           4 b2         -2.12           95.7
 

 Change of electron number:

             0.000000


 Electric transition dipole moment (velocity rep.):

    x        0.000000        Norm:                  0.000000
    y        0.000000
    z        0.000000        Norm / debye:          0.000000


 Electric transition dipole moment (length rep.):

    x        0.000000        Norm:                  0.000000
    y        0.000000
    z        0.000000        Norm / debye:          0.000000


 Magnetic transition dipole moment / i:

    x        0.000000        Norm:                  0.003632
    y        0.000000
    z        0.003632        Norm / Bohr mag.:      0.995519


 Electric quadrupole transition moment:

   xx        0.000000
   yy        0.000000        1/3*trace:             0.000000
   zz        0.000000
   xy        1.148251
   xz        0.000000        Anisotropy:            1.988829
   yz        0.000000




                         3 singlet a2 excitation


 Total energy:                           -417.3688012523338    

 Excitation energy:                      0.2523797299662309    

 Excitation energy / eV:                  6.867604817388731    

 Excitation energy / nm:                  180.5349132677830    

 Excitation energy / cm^(-1):             55390.94803050426    


 Oscillator strength:

    velocity representation:              0.000000000000000    

    length representation:                0.000000000000000    

    mixed representation:                 0.000000000000000    


 Rotatory strength:

    velocity representation:              0.000000000000000    

    velocity rep. / 10^(-40)erg*cm^3:     0.000000000000000    

    length representation:                0.000000000000000    

    length rep. / 10^(-40)erg*cm^3:       0.000000000000000    


 Dominant contributions:

    occ. orbital  energy / eV   virt. orbital  energy / eV   |coeff.|^2*100
      12 b1        -10.44           4 b2         -2.12           97.3
 

 Change of electron number:

             0.000000


 Electric transition dipole moment (velocity rep.):

    x        0.000000        Norm:                  0.000000
    y        0.000000
    z        0.000000        Norm / debye:          0.000000


 Electric transition dipole moment (length rep.):

    x        0.000000        Norm:                  0.000000
    y        0.000000
    z        0.000000        Norm / debye:          0.000000


 Magnetic transition dipole moment / i:

    x        0.000000        Norm:                  0.000580
    y        0.000000
    z        0.000580        Norm / Bohr mag.:      0.159089


 Electric quadrupole transition moment:

   xx        0.000000
   yy        0.000000        1/3*trace:             0.000000
   zz        0.000000
   xy        0.260349
   xz        0.000000        Anisotropy:            0.450938
   yz        0.000000




                         4 singlet a2 excitation


 Total energy:                           -417.3410709307391    

 Excitation energy:                      0.2801100515608795    

 Excitation energy / eV:                  7.622185584222220    

 Excitation energy / nm:                  162.6623264895483    

 Excitation energy / cm^(-1):             61477.05012168200    


 Oscillator strength:

    velocity representation:              0.000000000000000    

    length representation:                0.000000000000000    

    mixed representation:                 0.000000000000000    


 Rotatory strength:

    velocity representation:              0.000000000000000    

    velocity rep. / 10^(-40)erg*cm^3:     0.000000000000000    

    length representation:                0.000000000000000    

    length rep. / 10^(-40)erg*cm^3:       0.000000000000000    


 Dominant contributions:

    occ. orbital  energy / eV   virt. orbital  energy / eV   |coeff.|^2*100
       2 a2         -7.21          17 a1          1.59           97.6
 

 Change of electron number:

             0.000000


 Electric transition dipole moment (velocity rep.):

    x        0.000000        Norm:                  0.000000
    y        0.000000
    z        0.000000        Norm / debye:          0.000000


 Electric transition dipole moment (length rep.):

    x        0.000000        Norm:                  0.000000
    y        0.000000
    z        0.000000        Norm / debye:          0.000000


 Magnetic transition dipole moment / i:

    x        0.000000        Norm:                  0.001140
    y        0.000000
    z        0.001140        Norm / Bohr mag.:      0.312371


 Electric quadrupole transition moment:

   xx        0.000000
   yy        0.000000        1/3*trace:             0.000000
   zz        0.000000
   xy        0.662729
   xz        0.000000        Anisotropy:            1.147880
   yz        0.000000




                         5 singlet a2 excitation


 Total energy:                           -417.3388983110542    

 Excitation energy:                      0.2822826712458373    

 Excitation energy / eV:                  7.681305599196348    

 Excitation energy / nm:                  161.4103779693912    

 Excitation energy / cm^(-1):             61953.88502468966    


 Oscillator strength:

    velocity representation:              0.000000000000000    

    length representation:                0.000000000000000    

    mixed representation:                 0.000000000000000    


 Rotatory strength:

    velocity representation:              0.000000000000000    

    velocity rep. / 10^(-40)erg*cm^3:     0.000000000000000    

    length representation:                0.000000000000000    

    length rep. / 10^(-40)erg*cm^3:       0.000000000000000    


 Dominant contributions:

    occ. orbital  energy / eV   virt. orbital  energy / eV   |coeff.|^2*100
      13 b1         -9.01           5 b2          0.01           95.0
 

 Change of electron number:

             0.000000


 Electric transition dipole moment (velocity rep.):

    x        0.000000        Norm:                  0.000000
    y        0.000000
    z        0.000000        Norm / debye:          0.000000


 Electric transition dipole moment (length rep.):

    x        0.000000        Norm:                  0.000000
    y        0.000000
    z        0.000000        Norm / debye:          0.000000


 Magnetic transition dipole moment / i:

    x        0.000000        Norm:                  0.002116
    y        0.000000
    z        0.002116        Norm / Bohr mag.:      0.580006


 Electric quadrupole transition moment:

   xx        0.000000
   yy        0.000000        1/3*trace:             0.000000
   zz        0.000000
   xy        0.735729
   xz        0.000000        Anisotropy:            1.274321
   yz        0.000000




                         6 singlet a2 excitation


 Total energy:                           -417.3336365451330    

 Excitation energy:                      0.2875444371670161    

 Excitation energy / eV:                  7.824485596231346    

 Excitation energy / nm:                  158.4567349273225    

 Excitation energy / cm^(-1):             63108.70915707020    


 Oscillator strength:

    velocity representation:              0.000000000000000    

    length representation:                0.000000000000000    

    mixed representation:                 0.000000000000000    


 Rotatory strength:

    velocity representation:              0.000000000000000    

    velocity rep. / 10^(-40)erg*cm^3:     0.000000000000000    

    length representation:                0.000000000000000    

    length rep. / 10^(-40)erg*cm^3:       0.000000000000000    


 Dominant contributions:

    occ. orbital  energy / eV   virt. orbital  energy / eV   |coeff.|^2*100
      16 a1         -7.24           4 a2          2.00           80.1
      15 a1        -10.46           3 a2         -0.85           15.8
 

 Change of electron number:

             0.000000


 Electric transition dipole moment (velocity rep.):

    x        0.000000        Norm:                  0.000000
    y        0.000000
    z        0.000000        Norm / debye:          0.000000


 Electric transition dipole moment (length rep.):

    x        0.000000        Norm:                  0.000000
    y        0.000000
    z        0.000000        Norm / debye:          0.000000


 Magnetic transition dipole moment / i:

    x        0.000000        Norm:                  0.001622
    y        0.000000
    z        0.001622        Norm / Bohr mag.:      0.444665


 Electric quadrupole transition moment:

   xx        0.000000
   yy        0.000000        1/3*trace:             0.000000
   zz        0.000000
   xy        0.224287
   xz        0.000000        Anisotropy:            0.388477
   yz        0.000000




                         7 singlet a2 excitation


 Total energy:                           -417.3210025313526    

 Excitation energy:                      0.3001784509474166    

 Excitation energy / eV:                  8.168274750427065    

 Excitation energy / nm:                  151.7875534242847    

 Excitation energy / cm^(-1):             65881.55466578231    


 Oscillator strength:

    velocity representation:              0.000000000000000    

    length representation:                0.000000000000000    

    mixed representation:                 0.000000000000000    


 Rotatory strength:

    velocity representation:              0.000000000000000    

    velocity rep. / 10^(-40)erg*cm^3:     0.000000000000000    

    length representation:                0.000000000000000    

    length rep. / 10^(-40)erg*cm^3:       0.000000000000000    


 Dominant contributions:

    occ. orbital  energy / eV   virt. orbital  energy / eV   |coeff.|^2*100
      15 a1        -10.46           3 a2         -0.85           81.8
      16 a1         -7.24           4 a2          2.00           15.4
 

 Change of electron number:

             0.000000


 Electric transition dipole moment (velocity rep.):

    x        0.000000        Norm:                  0.000000
    y        0.000000
    z        0.000000        Norm / debye:          0.000000


 Electric transition dipole moment (length rep.):

    x        0.000000        Norm:                  0.000000
    y        0.000000
    z        0.000000        Norm / debye:          0.000000


 Magnetic transition dipole moment / i:

    x        0.000000        Norm:                  0.001511
    y        0.000000
    z       -0.001511        Norm / Bohr mag.:      0.414167


 Electric quadrupole transition moment:

   xx        0.000000
   yy        0.000000        1/3*trace:             0.000000
   zz        0.000000
   xy       -0.247983
   xz        0.000000        Anisotropy:            0.429520
   yz        0.000000




                         8 singlet a2 excitation


 Total energy:                           -417.3132677216450    

 Excitation energy:                      0.3079132606550443    

 Excitation energy / eV:                  8.378749721680883    

 Excitation energy / nm:                  147.9746359837509    

 Excitation energy / cm^(-1):             67579.14916989868    


 Oscillator strength:

    velocity representation:              0.000000000000000    

    length representation:                0.000000000000000    

    mixed representation:                 0.000000000000000    


 Rotatory strength:

    velocity representation:              0.000000000000000    

    velocity rep. / 10^(-40)erg*cm^3:     0.000000000000000    

    length representation:                0.000000000000000    

    length rep. / 10^(-40)erg*cm^3:       0.000000000000000    


 Dominant contributions:

    occ. orbital  energy / eV   virt. orbital  energy / eV   |coeff.|^2*100
       2 a2         -7.21          18 a1          2.06           86.1
       2 a2         -7.21          19 a1          2.63           11.9
 

 Change of electron number:

             0.000000


 Electric transition dipole moment (velocity rep.):

    x        0.000000        Norm:                  0.000000
    y        0.000000
    z        0.000000        Norm / debye:          0.000000


 Electric transition dipole moment (length rep.):

    x        0.000000        Norm:                  0.000000
    y        0.000000
    z        0.000000        Norm / debye:          0.000000


 Magnetic transition dipole moment / i:

    x        0.000000        Norm:                  0.000018
    y        0.000000
    z       -0.000018        Norm / Bohr mag.:      0.004806


 Electric quadrupole transition moment:

   xx        0.000000
   yy        0.000000        1/3*trace:             0.000000
   zz        0.000000
   xy       -0.032287
   xz        0.000000        Anisotropy:            0.055922
   yz        0.000000




                         9 singlet a2 excitation


 Total energy:                           -417.3104797951414    

 Excitation energy:                      0.3107011871585845    

 Excitation energy / eV:                  8.454613094261559    

 Excitation energy / nm:                  146.6468573122770    

 Excitation energy / cm^(-1):             68191.02830968192    


 Oscillator strength:

    velocity representation:              0.000000000000000    

    length representation:                0.000000000000000    

    mixed representation:                 0.000000000000000    


 Rotatory strength:

    velocity representation:              0.000000000000000    

    velocity rep. / 10^(-40)erg*cm^3:     0.000000000000000    

    length representation:                0.000000000000000    

    length rep. / 10^(-40)erg*cm^3:       0.000000000000000    


 Dominant contributions:

    occ. orbital  energy / eV   virt. orbital  energy / eV   |coeff.|^2*100
      11 b1        -12.15           4 b2         -2.12           66.9
      12 b1        -10.44           5 b2          0.01           26.9
 

 Change of electron number:

             0.000000


 Electric transition dipole moment (velocity rep.):

    x        0.000000        Norm:                  0.000000
    y        0.000000
    z        0.000000        Norm / debye:          0.000000


 Electric transition dipole moment (length rep.):

    x        0.000000        Norm:                  0.000000
    y        0.000000
    z        0.000000        Norm / debye:          0.000000


 Magnetic transition dipole moment / i:

    x        0.000000        Norm:                  0.001269
    y        0.000000
    z       -0.001269        Norm / Bohr mag.:      0.347895


 Electric quadrupole transition moment:

   xx        0.000000
   yy        0.000000        1/3*trace:             0.000000
   zz        0.000000
   xy       -0.372292
   xz        0.000000        Anisotropy:            0.644829
   yz        0.000000




                        10 singlet a2 excitation


 Total energy:                           -417.3025966116852    

 Excitation energy:                      0.3185843706148067    

 Excitation energy / eV:                  8.669125522369610    

 Excitation energy / nm:                  143.0181668111071    

 Excitation energy / cm^(-1):             69921.18708747663    


 Oscillator strength:

    velocity representation:              0.000000000000000    

    length representation:                0.000000000000000    

    mixed representation:                 0.000000000000000    


 Rotatory strength:

    velocity representation:              0.000000000000000    

    velocity rep. / 10^(-40)erg*cm^3:     0.000000000000000    

    length representation:                0.000000000000000    

    length rep. / 10^(-40)erg*cm^3:       0.000000000000000    


 Dominant contributions:

    occ. orbital  energy / eV   virt. orbital  energy / eV   |coeff.|^2*100
       2 a2         -7.21          19 a1          2.63           84.5
       2 a2         -7.21          18 a1          2.06           11.1
 

 Change of electron number:

             0.000000


 Electric transition dipole moment (velocity rep.):

    x        0.000000        Norm:                  0.000000
    y        0.000000
    z        0.000000        Norm / debye:          0.000000


 Electric transition dipole moment (length rep.):

    x        0.000000        Norm:                  0.000000
    y        0.000000
    z        0.000000        Norm / debye:          0.000000


 Magnetic transition dipole moment / i:

    x        0.000000        Norm:                  0.000891
    y        0.000000
    z       -0.000891        Norm / Bohr mag.:      0.244097


 Electric quadrupole transition moment:

   xx        0.000000
   yy        0.000000        1/3*trace:             0.000000
   zz        0.000000
   xy       -0.952446
   xz        0.000000        Anisotropy:            1.649685
   yz        0.000000



 ==============================================================================

                              I R R E P   b1  

 ==============================================================================


 Excitation is electric dipole allowed

 Excitation is magnetic dipole allowed

 Excitation is electric quadrupole allowed




                         1 singlet b1 excitation


 Total energy:                           -417.4590488255143    

 Excitation energy:                      0.1621321567856840    

 Excitation energy / eV:                  4.411842350191803    

 Excitation energy / nm:                  281.0260071987345    

 Excitation energy / cm^(-1):             35583.89523513251    


 Oscillator strength:

    velocity representation:             0.3587628732742118E-01

    length representation:               0.3222136633674236E-01

    mixed representation:                0.3399974995171384E-01


 Rotatory strength:

    velocity representation:              0.000000000000000    

    velocity rep. / 10^(-40)erg*cm^3:     0.000000000000000    

    length representation:                0.000000000000000    

    length rep. / 10^(-40)erg*cm^3:       0.000000000000000    


 Dominant contributions:

    occ. orbital  energy / eV   virt. orbital  energy / eV   |coeff.|^2*100
       2 a2         -7.21           4 b2         -2.12           90.2
 

 Change of electron number:

             0.000000


 Electric transition dipole moment (velocity rep.):

    x       -0.576122        Norm:                  0.576122
    y        0.000000
    z        0.000000        Norm / debye:          1.464368


 Electric transition dipole moment (length rep.):

    x        0.545988        Norm:                  0.545988
    y        0.000000
    z        0.000000        Norm / debye:          1.387773


 Magnetic transition dipole moment / i:

    x        0.000000        Norm:                  0.000203
    y       -0.000203
    z        0.000000        Norm / Bohr mag.:      0.055596


 Electric quadrupole transition moment:

   xx        0.000000
   yy        0.000000        1/3*trace:             0.000000
   zz        0.000000
   xy        0.000000
   xz        0.103188        Anisotropy:            0.178727
   yz        0.000000




                         2 singlet b1 excitation


 Total energy:                           -417.3925877471977    

 Excitation energy:                      0.2285932351023202    

 Excitation energy / eV:                  6.220341082151186    

 Excitation energy / nm:                  199.3206519851975    

 Excitation energy / cm^(-1):             50170.41585460001    


 Oscillator strength:

    velocity representation:             0.9690636545849992E-05

    length representation:               0.1360327929005340E-01

    mixed representation:                0.3630763493145702E-03


 Rotatory strength:

    velocity representation:              0.000000000000000    

    velocity rep. / 10^(-40)erg*cm^3:     0.000000000000000    

    length representation:                0.000000000000000    

    length rep. / 10^(-40)erg*cm^3:       0.000000000000000    


 Dominant contributions:

    occ. orbital  energy / eV   virt. orbital  energy / eV   |coeff.|^2*100
       3 b2         -7.57           3 a2         -0.85           51.2
       2 a2         -7.21           5 b2          0.01           35.3
       1 a2         -9.86           4 b2         -2.12           11.7
 

 Change of electron number:

             0.000000


 Electric transition dipole moment (velocity rep.):

    x       -0.007974        Norm:                  0.007974
    y        0.000000
    z        0.000000        Norm / debye:          0.020269


 Electric transition dipole moment (length rep.):

    x        0.298769        Norm:                  0.298769
    y        0.000000
    z        0.000000        Norm / debye:          0.759401


 Magnetic transition dipole moment / i:

    x        0.000000        Norm:                  0.001602
    y       -0.001602
    z        0.000000        Norm / Bohr mag.:      0.438954


 Electric quadrupole transition moment:

   xx        0.000000
   yy        0.000000        1/3*trace:             0.000000
   zz        0.000000
   xy        0.000000
   xz       -0.986773        Anisotropy:            1.709141
   yz        0.000000




                         3 singlet b1 excitation


 Total energy:                           -417.3644213458248    

 Excitation energy:                      0.2567596364751901    

 Excitation energy / eV:                  6.986788188591579    

 Excitation energy / nm:                  177.4552779615057    

 Excitation energy / cm^(-1):             56352.22639405859    


 Oscillator strength:

    velocity representation:             0.6002976388018666E-03

    length representation:               0.4235154480967607    

    mixed representation:                0.1594475849577534E-01


 Rotatory strength:

    velocity representation:              0.000000000000000    

    velocity rep. / 10^(-40)erg*cm^3:     0.000000000000000    

    length representation:                0.000000000000000    

    length rep. / 10^(-40)erg*cm^3:       0.000000000000000    


 Dominant contributions:

    occ. orbital  energy / eV   virt. orbital  energy / eV   |coeff.|^2*100
       2 a2         -7.21           5 b2          0.01           47.6
       3 b2         -7.57           3 a2         -0.85           35.2
       1 a2         -9.86           5 b2          0.01            5.5
       2 a2         -7.21           4 b2         -2.12            5.0
 

 Change of electron number:

             0.000000


 Electric transition dipole moment (velocity rep.):

    x        0.059220        Norm:                  0.059220
    y        0.000000
    z        0.000000        Norm / debye:          0.150522


 Electric transition dipole moment (length rep.):

    x        1.572957        Norm:                  1.572957
    y        0.000000
    z        0.000000        Norm / debye:          3.998088


 Magnetic transition dipole moment / i:

    x        0.000000        Norm:                  0.002776
    y        0.002776
    z        0.000000        Norm / Bohr mag.:      0.760719


 Electric quadrupole transition moment:

   xx        0.000000
   yy        0.000000        1/3*trace:             0.000000
   zz        0.000000
   xy        0.000000
   xz        1.721260        Anisotropy:            2.981309
   yz        0.000000




                         4 singlet b1 excitation


 Total energy:                           -417.3494506167510    

 Excitation energy:                      0.2717303655489844    

 Excitation energy / eV:                  7.394162628372335    

 Excitation energy / nm:                  167.6785462233751    

 Excitation energy / cm^(-1):             59637.92162883937    


 Oscillator strength:

    velocity representation:             0.7798729191512665E-02

    length representation:               0.2323005749497012E-01

    mixed representation:                0.1345975213391915E-01


 Rotatory strength:

    velocity representation:              0.000000000000000    

    velocity rep. / 10^(-40)erg*cm^3:     0.000000000000000    

    length representation:                0.000000000000000    

    length rep. / 10^(-40)erg*cm^3:       0.000000000000000    


 Dominant contributions:

    occ. orbital  energy / eV   virt. orbital  energy / eV   |coeff.|^2*100
       1 a2         -9.86           4 b2         -2.12           76.3
       2 a2         -7.21           5 b2          0.01            7.9
       1 a2         -9.86           5 b2          0.01            4.4
       3 b2         -7.57           3 a2         -0.85            2.6
 

 Change of electron number:

             0.000000


 Electric transition dipole moment (velocity rep.):

    x        0.207486        Norm:                  0.207486
    y        0.000000
    z        0.000000        Norm / debye:          0.527380


 Electric transition dipole moment (length rep.):

    x       -0.358098        Norm:                  0.358098
    y        0.000000
    z        0.000000        Norm / debye:          0.910201


 Magnetic transition dipole moment / i:

    x        0.000000        Norm:                  0.002531
    y        0.002531
    z        0.000000        Norm / Bohr mag.:      0.693610


 Electric quadrupole transition moment:

   xx        0.000000
   yy        0.000000        1/3*trace:             0.000000
   zz        0.000000
   xy        0.000000
   xz        2.022910        Anisotropy:            3.503782
   yz        0.000000




                         5 singlet b1 excitation


 Total energy:                           -417.3136692922266    

 Excitation energy:                      0.3075116900734095    

 Excitation energy / eV:                  8.367822425493802    

 Excitation energy / nm:                  148.1678717616331    

 Excitation energy / cm^(-1):             67491.01461479440    


 Oscillator strength:

    velocity representation:             0.5082253162680072E-03

    length representation:               0.3137056282024155E-03

    mixed representation:                0.3992907989275817E-03


 Rotatory strength:

    velocity representation:              0.000000000000000    

    velocity rep. / 10^(-40)erg*cm^3:     0.000000000000000    

    length representation:                0.000000000000000    

    length rep. / 10^(-40)erg*cm^3:       0.000000000000000    


 Dominant contributions:

    occ. orbital  energy / eV   virt. orbital  energy / eV   |coeff.|^2*100
       2 b2        -10.20           3 a2         -0.85           64.0
       3 b2         -7.57           4 a2          2.00           34.3
 

 Change of electron number:

             0.000000


 Electric transition dipole moment (velocity rep.):

    x       -0.049790        Norm:                  0.049790
    y        0.000000
    z        0.000000        Norm / debye:          0.126555


 Electric transition dipole moment (length rep.):

    x        0.039118        Norm:                  0.039118
    y        0.000000
    z        0.000000        Norm / debye:          0.099429


 Magnetic transition dipole moment / i:

    x        0.000000        Norm:                  0.000630
    y        0.000630
    z        0.000000        Norm / Bohr mag.:      0.172757


 Electric quadrupole transition moment:

   xx        0.000000
   yy        0.000000        1/3*trace:             0.000000
   zz        0.000000
   xy        0.000000
   xz       -1.056433        Anisotropy:            1.829796
   yz        0.000000




                         6 singlet b1 excitation


 Total energy:                           -417.2997754378814    

 Excitation energy:                      0.3214055444186764    

 Excitation energy / eV:                  8.745893600411137    

 Excitation energy / nm:                  141.7628085489629    

 Excitation energy / cm^(-1):             70540.36316622146    


 Oscillator strength:

    velocity representation:             0.5481980391763430E-01

    length representation:               0.9619983180730059E-01

    mixed representation:                0.7261994159034842E-01


 Rotatory strength:

    velocity representation:              0.000000000000000    

    velocity rep. / 10^(-40)erg*cm^3:     0.000000000000000    

    length representation:                0.000000000000000    

    length rep. / 10^(-40)erg*cm^3:       0.000000000000000    


 Dominant contributions:

    occ. orbital  energy / eV   virt. orbital  energy / eV   |coeff.|^2*100
      16 a1         -7.24          14 b1          2.42           88.2
      16 a1         -7.24          15 b1          2.97            5.3
 

 Change of electron number:

             0.000000


 Electric transition dipole moment (velocity rep.):

    x        0.505810        Norm:                  0.505810
    y        0.000000
    z        0.000000        Norm / debye:          1.285651


 Electric transition dipole moment (length rep.):

    x        0.670048        Norm:                  0.670048
    y        0.000000
    z        0.000000        Norm / debye:          1.703106


 Magnetic transition dipole moment / i:

    x        0.000000        Norm:                  0.000031
    y       -0.000031
    z        0.000000        Norm / Bohr mag.:      0.008613


 Electric quadrupole transition moment:

   xx        0.000000
   yy        0.000000        1/3*trace:             0.000000
   zz        0.000000
   xy        0.000000
   xz        0.099176        Anisotropy:            0.171778
   yz        0.000000




                         7 singlet b1 excitation


 Total energy:                           -417.2912165520296    

 Excitation energy:                      0.3299644302703960    

 Excitation energy / eV:                  8.978792834096087    

 Excitation energy / nm:                  138.0856494824675    

 Excitation energy / cm^(-1):             72418.82147773106    


 Oscillator strength:

    velocity representation:             0.9224109987150621E-02

    length representation:               0.1277375704516834    

    mixed representation:                0.3432587070035848E-01


 Rotatory strength:

    velocity representation:              0.000000000000000    

    velocity rep. / 10^(-40)erg*cm^3:     0.000000000000000    

    length representation:                0.000000000000000    

    length rep. / 10^(-40)erg*cm^3:       0.000000000000000    


 Dominant contributions:

    occ. orbital  energy / eV   virt. orbital  energy / eV   |coeff.|^2*100
       3 b2         -7.57           4 a2          2.00           42.6
       2 b2        -10.20           3 a2         -0.85           19.7
       1 a2         -9.86           5 b2          0.01           18.2
      16 a1         -7.24          15 b1          2.97           10.4
 

 Change of electron number:

             0.000000


 Electric transition dipole moment (velocity rep.):

    x        0.204774        Norm:                  0.204774
    y        0.000000
    z        0.000000        Norm / debye:          0.520487


 Electric transition dipole moment (length rep.):

    x        0.762029        Norm:                  0.762029
    y        0.000000
    z        0.000000        Norm / debye:          1.936899


 Magnetic transition dipole moment / i:

    x        0.000000        Norm:                  0.001220
    y        0.001220
    z        0.000000        Norm / Bohr mag.:      0.334406


 Electric quadrupole transition moment:

   xx        0.000000
   yy        0.000000        1/3*trace:             0.000000
   zz        0.000000
   xy        0.000000
   xz        6.386005        Anisotropy:           11.060885
   yz        0.000000




                         8 singlet b1 excitation


 Total energy:                           -417.2887974349232    

 Excitation energy:                      0.3323835473768377    

 Excitation energy / eV:                  9.044620388061096    

 Excitation energy / nm:                  137.0806498082856    

 Excitation energy / cm^(-1):             72949.75631128742    


 Oscillator strength:

    velocity representation:             0.1165246507604674E-01

    length representation:               0.4668331650846284E-03

    mixed representation:                0.2332328697351425E-02


 Rotatory strength:

    velocity representation:              0.000000000000000    

    velocity rep. / 10^(-40)erg*cm^3:     0.000000000000000    

    length representation:                0.000000000000000    

    length rep. / 10^(-40)erg*cm^3:       0.000000000000000    


 Dominant contributions:

    occ. orbital  energy / eV   virt. orbital  energy / eV   |coeff.|^2*100
      16 a1         -7.24          15 b1          2.97           63.2
       3 b2         -7.57           4 a2          2.00           12.2
      16 a1         -7.24          14 b1          2.42            6.9
       1 a2         -9.86           5 b2          0.01            6.4
       2 b2        -10.20           3 a2         -0.85            6.1
 

 Change of electron number:

             0.000000


 Electric transition dipole moment (velocity rep.):

    x       -0.229316        Norm:                  0.229316
    y        0.000000
    z        0.000000        Norm / debye:          0.582868


 Electric transition dipole moment (length rep.):

    x       -0.045899        Norm:                  0.045899
    y        0.000000
    z        0.000000        Norm / debye:          0.116665


 Magnetic transition dipole moment / i:

    x        0.000000        Norm:                  0.003256
    y        0.003256
    z        0.000000        Norm / Bohr mag.:      0.892481


 Electric quadrupole transition moment:

   xx        0.000000
   yy        0.000000        1/3*trace:             0.000000
   zz        0.000000
   xy        0.000000
   xz       -2.047407        Anisotropy:            3.546213
   yz        0.000000




                         9 singlet b1 excitation


 Total energy:                           -417.2827008398149    

 Excitation energy:                      0.3384801424851498    

 Excitation energy / eV:                  9.210517252841459    

 Excitation energy / nm:                  134.6115973760529    

 Excitation energy / cm^(-1):             74287.80427121163    


 Oscillator strength:

    velocity representation:             0.2891218893787535E-01

    length representation:               0.4155069412167166    

    mixed representation:                0.1096048137148017    


 Rotatory strength:

    velocity representation:              0.000000000000000    

    velocity rep. / 10^(-40)erg*cm^3:     0.000000000000000    

    length representation:                0.000000000000000    

    length rep. / 10^(-40)erg*cm^3:       0.000000000000000    


 Dominant contributions:

    occ. orbital  energy / eV   virt. orbital  energy / eV   |coeff.|^2*100
       1 a2         -9.86           5 b2          0.01           56.6
      16 a1         -7.24          15 b1          2.97           12.3
      13 b1         -9.01          18 a1          2.06            8.5
       3 b2         -7.57           4 a2          2.00            4.2
      16 a1         -7.24          16 b1          3.26            3.1
       1 a2         -9.86           4 b2         -2.12            2.8
       2 b2        -10.20           3 a2         -0.85            2.5
 

 Change of electron number:

             0.000000


 Electric transition dipole moment (velocity rep.):

    x       -0.357948        Norm:                  0.357948
    y        0.000000
    z        0.000000        Norm / debye:          0.909819


 Electric transition dipole moment (length rep.):

    x       -1.356964        Norm:                  1.356964
    y        0.000000
    z        0.000000        Norm / debye:          3.449083


 Magnetic transition dipole moment / i:

    x        0.000000        Norm:                  0.002911
    y        0.002911
    z        0.000000        Norm / Bohr mag.:      0.797824


 Electric quadrupole transition moment:

   xx        0.000000
   yy        0.000000        1/3*trace:             0.000000
   zz        0.000000
   xy        0.000000
   xz        3.336373        Anisotropy:            5.778767
   yz        0.000000




                        10 singlet b1 excitation


 Total energy:                           -417.2652974192791    

 Excitation energy:                      0.3558835630208635    

 Excitation energy / eV:                  9.684088623751880    

 Excitation energy / nm:                  128.0288200816087    

 Excitation energy / cm^(-1):             78107.41356620421    


 Oscillator strength:

    velocity representation:             0.6723150883440655E-01

    length representation:               0.5371547441780961E-01

    mixed representation:                0.6009469521401457E-01


 Rotatory strength:

    velocity representation:              0.000000000000000    

    velocity rep. / 10^(-40)erg*cm^3:     0.000000000000000    

    length representation:                0.000000000000000    

    length rep. / 10^(-40)erg*cm^3:       0.000000000000000    


 Dominant contributions:

    occ. orbital  energy / eV   virt. orbital  energy / eV   |coeff.|^2*100
      16 a1         -7.24          16 b1          3.26           84.1
      13 b1         -9.01          18 a1          2.06            5.8
      13 b1         -9.01          17 a1          1.59            3.8
 

 Change of electron number:

             0.000000


 Electric transition dipole moment (velocity rep.):

    x        0.532327        Norm:                  0.532327
    y        0.000000
    z        0.000000        Norm / debye:          1.353049


 Electric transition dipole moment (length rep.):

    x        0.475819        Norm:                  0.475819
    y        0.000000
    z        0.000000        Norm / debye:          1.209419


 Magnetic transition dipole moment / i:

    x        0.000000        Norm:                  0.002674
    y       -0.002674
    z        0.000000        Norm / Bohr mag.:      0.732988


 Electric quadrupole transition moment:

   xx        0.000000
   yy        0.000000        1/3*trace:             0.000000
   zz        0.000000
   xy        0.000000
   xz       -0.314016        Anisotropy:            0.543891
   yz        0.000000



 ==============================================================================

                              I R R E P   b2  

 ==============================================================================


 Excitation is electric dipole allowed

 Excitation is magnetic dipole allowed

 Excitation is electric quadrupole allowed




                         1 singlet b2 excitation


 Total energy:                           -417.4899651774029    

 Excitation energy:                      0.1312158048971515    

 Excitation energy / eV:                  3.570565250821815    

 Excitation energy / nm:                  347.2398214202406    

 Excitation energy / cm^(-1):             28798.54032180557    


 Oscillator strength:

    velocity representation:             0.1242272147740580E-01

    length representation:               0.3068810824635079E-02

    mixed representation:                0.6174381114029940E-02


 Rotatory strength:

    velocity representation:              0.000000000000000    

    velocity rep. / 10^(-40)erg*cm^3:     0.000000000000000    

    length representation:                0.000000000000000    

    length rep. / 10^(-40)erg*cm^3:       0.000000000000000    


 Dominant contributions:

    occ. orbital  energy / eV   virt. orbital  energy / eV   |coeff.|^2*100
      16 a1         -7.24           4 b2         -2.12           98.6
 

 Change of electron number:

             0.000000


 Electric transition dipole moment (velocity rep.):

    x        0.000000        Norm:                  0.376843
    y        0.376843
    z        0.000000        Norm / debye:          0.957848


 Electric transition dipole moment (length rep.):

    x        0.000000        Norm:                  0.187300
    y       -0.187300
    z        0.000000        Norm / debye:          0.476073


 Magnetic transition dipole moment / i:

    x       -0.000311        Norm:                  0.000311
    y        0.000000
    z        0.000000        Norm / Bohr mag.:      0.085140


 Electric quadrupole transition moment:

   xx        0.000000
   yy        0.000000        1/3*trace:             0.000000
   zz        0.000000
   xy        0.000000
   xz        0.000000        Anisotropy:            1.172212
   yz        0.676777




                         2 singlet b2 excitation


 Total energy:                           -417.4053088429368    

 Excitation energy:                      0.2158721393631897    

 Excitation energy / eV:                  5.874182306277207    

 Excitation energy / nm:                  211.0663876978717    

 Excitation energy / cm^(-1):             47378.45806515500    


 Oscillator strength:

    velocity representation:             0.6501343694873866E-03

    length representation:               0.3182554483542505E-02

    mixed representation:                0.1438432498422210E-02


 Rotatory strength:

    velocity representation:              0.000000000000000    

    velocity rep. / 10^(-40)erg*cm^3:     0.000000000000000    

    length representation:                0.000000000000000    

    length rep. / 10^(-40)erg*cm^3:       0.000000000000000    


 Dominant contributions:

    occ. orbital  energy / eV   virt. orbital  energy / eV   |coeff.|^2*100
      16 a1         -7.24           5 b2          0.01           97.8
 

 Change of electron number:

             0.000000


 Electric transition dipole moment (velocity rep.):

    x        0.000000        Norm:                  0.067212
    y       -0.067212
    z        0.000000        Norm / debye:          0.170838


 Electric transition dipole moment (length rep.):

    x        0.000000        Norm:                  0.148708
    y       -0.148708
    z        0.000000        Norm / debye:          0.377982


 Magnetic transition dipole moment / i:

    x        0.000431        Norm:                  0.000431
    y        0.000000
    z        0.000000        Norm / Bohr mag.:      0.118150


 Electric quadrupole transition moment:

   xx        0.000000
   yy        0.000000        1/3*trace:             0.000000
   zz        0.000000
   xy        0.000000
   xz        0.000000        Anisotropy:            0.444650
   yz        0.256719




                         3 singlet b2 excitation


 Total energy:                           -417.3750947232144    

 Excitation energy:                      0.2460862590856704    

 Excitation energy / eV:                  6.696350687973439    

 Excitation energy / nm:                  185.1519578106064    

 Excitation energy / cm^(-1):             54009.69083317203    


 Oscillator strength:

    velocity representation:             0.1322193510146292E-03

    length representation:               0.2604888401277619E-03

    mixed representation:                0.1855846582782267E-03


 Rotatory strength:

    velocity representation:              0.000000000000000    

    velocity rep. / 10^(-40)erg*cm^3:     0.000000000000000    

    length representation:                0.000000000000000    

    length rep. / 10^(-40)erg*cm^3:       0.000000000000000    


 Dominant contributions:

    occ. orbital  energy / eV   virt. orbital  energy / eV   |coeff.|^2*100
      13 b1         -9.01           3 a2         -0.85           98.3
 

 Change of electron number:

             0.000000


 Electric transition dipole moment (velocity rep.):

    x        0.000000        Norm:                  0.028389
    y       -0.028389
    z        0.000000        Norm / debye:          0.072158


 Electric transition dipole moment (length rep.):

    x        0.000000        Norm:                  0.039847
    y       -0.039847
    z        0.000000        Norm / debye:          0.101282


 Magnetic transition dipole moment / i:

    x        0.000512        Norm:                  0.000512
    y        0.000000
    z        0.000000        Norm / Bohr mag.:      0.140455


 Electric quadrupole transition moment:

   xx        0.000000
   yy        0.000000        1/3*trace:             0.000000
   zz        0.000000
   xy        0.000000
   xz        0.000000        Anisotropy:            0.187139
   yz        0.108045




                         4 singlet b2 excitation


 Total energy:                           -417.3632164654100    

 Excitation energy:                      0.2579645168900020    

 Excitation energy / eV:                  7.019574666896502    

 Excitation energy / nm:                  176.6264337797610    

 Excitation energy / cm^(-1):             56616.66707813711    


 Oscillator strength:

    velocity representation:             0.1303755402193675E-02

    length representation:               0.2400483735187923E-02

    mixed representation:                0.1769079884467998E-02


 Rotatory strength:

    velocity representation:              0.000000000000000    

    velocity rep. / 10^(-40)erg*cm^3:     0.000000000000000    

    length representation:                0.000000000000000    

    length rep. / 10^(-40)erg*cm^3:       0.000000000000000    


 Dominant contributions:

    occ. orbital  energy / eV   virt. orbital  energy / eV   |coeff.|^2*100
      15 a1        -10.46           4 b2         -2.12           97.6
 

 Change of electron number:

             0.000000


 Electric transition dipole moment (velocity rep.):

    x        0.000000        Norm:                  0.087069
    y        0.087069
    z        0.000000        Norm / debye:          0.221309


 Electric transition dipole moment (length rep.):

    x        0.000000        Norm:                  0.118145
    y        0.118145
    z        0.000000        Norm / debye:          0.300297


 Magnetic transition dipole moment / i:

    x       -0.000209        Norm:                  0.000209
    y        0.000000
    z        0.000000        Norm / Bohr mag.:      0.057398


 Electric quadrupole transition moment:

   xx        0.000000
   yy        0.000000        1/3*trace:             0.000000
   zz        0.000000
   xy        0.000000
   xz        0.000000        Anisotropy:            0.226333
   yz        0.130673




                         5 singlet b2 excitation


 Total energy:                           -417.3248875380859    

 Excitation energy:                      0.2962934442140744    

 Excitation energy / eV:                  8.062558293082972    

 Excitation energy / nm:                  153.7777954583433    

 Excitation energy / cm^(-1):             65028.89424771503    


 Oscillator strength:

    velocity representation:             0.7703882127632167E-02

    length representation:               0.4206700190259306E-02

    mixed representation:                0.5692795658729154E-02


 Rotatory strength:

    velocity representation:              0.000000000000000    

    velocity rep. / 10^(-40)erg*cm^3:     0.000000000000000    

    length representation:                0.000000000000000    

    length rep. / 10^(-40)erg*cm^3:       0.000000000000000    


 Dominant contributions:

    occ. orbital  energy / eV   virt. orbital  energy / eV   |coeff.|^2*100
       3 b2         -7.57          17 a1          1.59           81.6
      12 b1        -10.44           3 a2         -0.85           15.1
 

 Change of electron number:

             0.000000


 Electric transition dipole moment (velocity rep.):

    x        0.000000        Norm:                  0.197487
    y        0.197487
    z        0.000000        Norm / debye:          0.501967


 Electric transition dipole moment (length rep.):

    x        0.000000        Norm:                  0.145934
    y        0.145934
    z        0.000000        Norm / debye:          0.370929


 Magnetic transition dipole moment / i:

    x       -0.002093        Norm:                  0.002093
    y        0.000000
    z        0.000000        Norm / Bohr mag.:      0.573756


 Electric quadrupole transition moment:

   xx        0.000000
   yy        0.000000        1/3*trace:             0.000000
   zz        0.000000
   xy        0.000000
   xz        0.000000        Anisotropy:            1.733736
   yz        1.000973




                         6 singlet b2 excitation


 Total energy:                           -417.3225481701869    

 Excitation energy:                      0.2986328121130897    

 Excitation energy / eV:                  8.126215759770458    

 Excitation energy / nm:                  152.5731628001599    

 Excitation energy / cm^(-1):             65542.32615342285    


 Oscillator strength:

    velocity representation:             0.1406987438430555E-06

    length representation:               0.9498062318181117E-03

    mixed representation:                0.1156012732244391E-04


 Rotatory strength:

    velocity representation:              0.000000000000000    

    velocity rep. / 10^(-40)erg*cm^3:     0.000000000000000    

    length representation:                0.000000000000000    

    length rep. / 10^(-40)erg*cm^3:       0.000000000000000    


 Dominant contributions:

    occ. orbital  energy / eV   virt. orbital  energy / eV   |coeff.|^2*100
      12 b1        -10.44           3 a2         -0.85           83.2
       3 b2         -7.57          17 a1          1.59           15.1
 

 Change of electron number:

             0.000000


 Electric transition dipole moment (velocity rep.):

    x        0.000000        Norm:                  0.000841
    y        0.000841
    z        0.000000        Norm / debye:          0.002137


 Electric transition dipole moment (length rep.):

    x        0.000000        Norm:                  0.069071
    y       -0.069071
    z        0.000000        Norm / debye:          0.175562


 Magnetic transition dipole moment / i:

    x       -0.002054        Norm:                  0.002054
    y        0.000000
    z        0.000000        Norm / Bohr mag.:      0.562851


 Electric quadrupole transition moment:

   xx        0.000000
   yy        0.000000        1/3*trace:             0.000000
   zz        0.000000
   xy        0.000000
   xz        0.000000        Anisotropy:            1.337536
   yz        0.772227




                         7 singlet b2 excitation


 Total energy:                           -417.3101667917784    

 Excitation energy:                      0.3110141905216448    

 Excitation energy / eV:                  8.463130352776334    

 Excitation energy / nm:                  146.4992725366628    

 Excitation energy / cm^(-1):             68259.72460719742    


 Oscillator strength:

    velocity representation:             0.4475801923677470E-02

    length representation:               0.4144398887424084E-02

    mixed representation:                0.4306914035921715E-02


 Rotatory strength:

    velocity representation:              0.000000000000000    

    velocity rep. / 10^(-40)erg*cm^3:     0.000000000000000    

    length representation:                0.000000000000000    

    length rep. / 10^(-40)erg*cm^3:       0.000000000000000    


 Dominant contributions:

    occ. orbital  energy / eV   virt. orbital  energy / eV   |coeff.|^2*100
       2 a2         -7.21          14 b1          2.42           89.8
       3 b2         -7.57          18 a1          2.06            5.8
 

 Change of electron number:

             0.000000


 Electric transition dipole moment (velocity rep.):

    x        0.000000        Norm:                  0.146923
    y       -0.146923
    z        0.000000        Norm / debye:          0.373445


 Electric transition dipole moment (length rep.):

    x        0.000000        Norm:                  0.141379
    y       -0.141379
    z        0.000000        Norm / debye:          0.359353


 Magnetic transition dipole moment / i:

    x        0.001744        Norm:                  0.001744
    y        0.000000
    z        0.000000        Norm / Bohr mag.:      0.478087


 Electric quadrupole transition moment:

   xx        0.000000
   yy        0.000000        1/3*trace:             0.000000
   zz        0.000000
   xy        0.000000
   xz        0.000000        Anisotropy:            2.171007
   yz       -1.253431




                         8 singlet b2 excitation


 Total energy:                           -417.3070708954983    

 Excitation energy:                      0.3141100868017577    

 Excitation energy / eV:                  8.547374012955718    

 Excitation energy / nm:                  145.0553629904795    

 Excitation energy / cm^(-1):             68939.19529996073    


 Oscillator strength:

    velocity representation:             0.5189425468230723E-02

    length representation:               0.5259668986437117E-02

    mixed representation:                0.5224429173860054E-02


 Rotatory strength:

    velocity representation:              0.000000000000000    

    velocity rep. / 10^(-40)erg*cm^3:     0.000000000000000    

    length representation:                0.000000000000000    

    length rep. / 10^(-40)erg*cm^3:       0.000000000000000    


 Dominant contributions:

    occ. orbital  energy / eV   virt. orbital  energy / eV   |coeff.|^2*100
       3 b2         -7.57          18 a1          2.06           87.8
       2 a2         -7.21          14 b1          2.42            5.8
 

 Change of electron number:

             0.000000


 Electric transition dipole moment (velocity rep.):

    x        0.000000        Norm:                  0.157422
    y        0.157422
    z        0.000000        Norm / debye:          0.400129


 Electric transition dipole moment (length rep.):

    x        0.000000        Norm:                  0.158483
    y        0.158483
    z        0.000000        Norm / debye:          0.402828


 Magnetic transition dipole moment / i:

    x        0.001965        Norm:                  0.001965
    y        0.000000
    z        0.000000        Norm / Bohr mag.:      0.538547


 Electric quadrupole transition moment:

   xx        0.000000
   yy        0.000000        1/3*trace:             0.000000
   zz        0.000000
   xy        0.000000
   xz        0.000000        Anisotropy:            1.968923
   yz       -1.136758




                         9 singlet b2 excitation


 Total energy:                           -417.3025181875479    

 Excitation energy:                      0.3186627947521344    

 Excitation energy / eV:                  8.671259552639727    

 Excitation energy / nm:                  142.9829694911217    

 Excitation energy / cm^(-1):             69938.39919605461    


 Oscillator strength:

    velocity representation:             0.2025240528178659E-02

    length representation:               0.1082833099726628E-03

    mixed representation:                0.4682945097713288E-03


 Rotatory strength:

    velocity representation:              0.000000000000000    

    velocity rep. / 10^(-40)erg*cm^3:     0.000000000000000    

    length representation:                0.000000000000000    

    length rep. / 10^(-40)erg*cm^3:       0.000000000000000    


 Dominant contributions:

    occ. orbital  energy / eV   virt. orbital  energy / eV   |coeff.|^2*100
      14 a1        -12.37           4 b2         -2.12           82.4
      15 a1        -10.46           5 b2          0.01           12.4
 

 Change of electron number:

             0.000000


 Electric transition dipole moment (velocity rep.):

    x        0.000000        Norm:                  0.097638
    y        0.097638
    z        0.000000        Norm / debye:          0.248173


 Electric transition dipole moment (length rep.):

    x        0.000000        Norm:                  0.022577
    y        0.022577
    z        0.000000        Norm / debye:          0.057385


 Magnetic transition dipole moment / i:

    x        0.000942        Norm:                  0.000942
    y        0.000000
    z        0.000000        Norm / Bohr mag.:      0.258179


 Electric quadrupole transition moment:

   xx        0.000000
   yy        0.000000        1/3*trace:             0.000000
   zz        0.000000
   xy        0.000000
   xz        0.000000        Anisotropy:            0.588313
   yz       -0.339663




                        10 singlet b2 excitation


 Total energy:                           -417.2929564665157    

 Excitation energy:                      0.3282245157842981    

 Excitation energy / eV:                  8.931447331712953    

 Excitation energy / nm:                  138.8176399655144    

 Excitation energy / cm^(-1):             72036.95438844514    


 Oscillator strength:

    velocity representation:             0.4720357268079017E-03

    length representation:               0.2284276304625307E-04

    mixed representation:                0.1038393001557635E-03


 Rotatory strength:

    velocity representation:              0.000000000000000    

    velocity rep. / 10^(-40)erg*cm^3:     0.000000000000000    

    length representation:                0.000000000000000    

    length rep. / 10^(-40)erg*cm^3:       0.000000000000000    


 Dominant contributions:

    occ. orbital  energy / eV   virt. orbital  energy / eV   |coeff.|^2*100
       3 b2         -7.57          19 a1          2.63           79.7
      15 a1        -10.46           5 b2          0.01           13.2
 

 Change of electron number:

             0.000000


 Electric transition dipole moment (velocity rep.):

    x        0.000000        Norm:                  0.046446
    y       -0.046446
    z        0.000000        Norm / debye:          0.118055


 Electric transition dipole moment (length rep.):

    x        0.000000        Norm:                  0.010217
    y       -0.010217
    z        0.000000        Norm / debye:          0.025970


 Magnetic transition dipole moment / i:

    x        0.001083        Norm:                  0.001083
    y        0.000000
    z        0.000000        Norm / Bohr mag.:      0.296921


 Electric quadrupole transition moment:

   xx        0.000000
   yy        0.000000        1/3*trace:             0.000000
   zz        0.000000
   xy        0.000000
   xz        0.000000        Anisotropy:            0.061016
   yz       -0.035228


    ------------------------------------------------------------------------
         total  cpu-time : 55 minutes and 25 seconds
         total wall-time : 55 minutes and 25 seconds
    ------------------------------------------------------------------------


   ****  escf : all done  ****


    2024-02-13 14:03:31.248 

