 DBCSR| CPU Multiplication driver                                           XSMM (U)
 DBCSR| Multrec recursion limit                                              512 (U)
 DBCSR| Multiplication stack size                                           1000 (D)
 DBCSR| Maximum elements for images                                    UNLIMITED (U)
 DBCSR| Multiplicative factor virtual images                                   1 (U)
 DBCSR| Use multiplication densification                                       T (D)
 DBCSR| Multiplication size stacks                                             3 (U)
 DBCSR| Use memory pool for CPU allocation                                     F (U)
 DBCSR| Number of 3D layers                                               SINGLE (U)
 DBCSR| Use MPI memory allocation                                              F (U)
 DBCSR| Use RMA algorithm                                                      F (U)
 DBCSR| Use Communication thread                                               T (U)
 DBCSR| Communication thread load                                             83 (D)
 DBCSR| MPI: My process id                                                     0
 DBCSR| MPI: Number of processes                                             128
 DBCSR| OMP: Current number of threads                                         2
 DBCSR| OMP: Max number of threads                                             2
 DBCSR| Split modifier for TAS multiplication algorithm                  1.0E+00 (U)


  **** **** ******  **  PROGRAM STARTED AT               2023-12-06 14:08:59.288
 ***** ** ***  *** **   PROGRAM STARTED ON                           nesh-srp146
 **    ****   ******    PROGRAM STARTED BY                              suphc355
 ***** **    ** ** **   PROGRAM PROCESS ID                               1993973
  **** **  *******  **  PROGRAM STARTED IN /gxfs_work/cau/suphc355/benchmark_pbe
                                           0/pbe0_bm_ae/quinazolin

 CP2K| version string:                 CP2K version 2023.2 (Development Version)
 CP2K| source code revision number:                                  git:845a3ae
 CP2K| cp2kflags: omp libint fftw3 libxc parallel mpi_f08 scalapack cosma xsmm s
 CP2K|            pglib mkl
 CP2K| is freely available from                            https://www.cp2k.org/
 CP2K| Program compiled at                           Fr 1. Dez 12:58:35 CET 2023
 CP2K| Program compiled on                                           nesh-login3
 CP2K| Program compiled for                                                local
 CP2K| Data directory path            /gxfs_home/cau/suphc355/software/cp2k/data
 CP2K| Input file name                                                   les.inp
 
 GLOBAL| Force Environment number                                              1
 GLOBAL| Basis set file name                                     EMSL_BASIS_SETS
 GLOBAL| Potential file name                                           POTENTIAL
 GLOBAL| MM Potential file name                                     MM_POTENTIAL
 GLOBAL| Coordinate file name                                            lit.xyz
 GLOBAL| Method name                                                        CP2K
 GLOBAL| Project name                                           quinazoline_less
 GLOBAL| Run type                                                         ENERGY
 GLOBAL| FFT library                                                       FFTW3
 GLOBAL| Diagonalization library                                       ScaLAPACK
 GLOBAL| DGEMM library                                                      BLAS
 GLOBAL| Orthonormality check for eigenvectors                          DISABLED
 GLOBAL| Matrix multiplication library                                     COSMA
 GLOBAL| All-to-all communication in single precision                          F
 GLOBAL| FFTs using library dependent lengths                                  F
 GLOBAL| Grid backend                                                       AUTO
 GLOBAL| Global print level                                               MEDIUM
 GLOBAL| MPI I/O enabled                                                       T
 GLOBAL| Total number of message passing processes                           128
 GLOBAL| Number of threads for this process                                    2
 GLOBAL| This output is from process                                           0
 GLOBAL| Stack size for threads created by OpenMP (OMP_STACKSIZE)        default
 GLOBAL| CPU model name                              Intel(R) Xeon(R) Gold 6426Y
 GLOBAL| CPUID                                                              1003

 MEMORY| system memory details [Kb]
 MEMORY|                        rank 0           min           max       average
 MEMORY| MemTotal            263786136     263786136     263786136     263786136
 MEMORY| MemFree             244045888     244045888     244297296     244137228
 MEMORY| Buffers                855028        754232        855028        828544
 MEMORY| Cached                 799132        702732        799132        764330
 MEMORY| Slab                   526204        486720        526204        511200
 MEMORY| SReclaimable           147860        127048        147860        140291
 MEMORY| MemLikelyFree       245847908     245847908     245898536     245870393


 *** Fundamental physical constants (SI units) ***

 *** Literature: B. J. Mohr and B. N. Taylor,
 ***             CODATA recommended values of the fundamental physical
 ***             constants: 2006, Web Version 5.1
 ***             http://physics.nist.gov/constants

 Speed of light in vacuum [m/s]                             2.99792458000000E+08
 Magnetic constant or permeability of vacuum [N/A**2]       1.25663706143592E-06
 Electric constant or permittivity of vacuum [F/m]          8.85418781762039E-12
 Planck constant (h) [J*s]                                  6.62606896000000E-34
 Planck constant (h-bar) [J*s]                              1.05457162825177E-34
 Elementary charge [C]                                      1.60217648700000E-19
 Electron mass [kg]                                         9.10938215000000E-31
 Electron g factor [ ]                                     -2.00231930436220E+00
 Proton mass [kg]                                           1.67262163700000E-27
 Fine-structure constant                                    7.29735253760000E-03
 Rydberg constant [1/m]                                     1.09737315685270E+07
 Avogadro constant [1/mol]                                  6.02214179000000E+23
 Boltzmann constant [J/K]                                   1.38065040000000E-23
 Atomic mass unit [kg]                                      1.66053878200000E-27
 Bohr radius [m]                                            5.29177208590000E-11

 *** Conversion factors ***

 [u] -> [a.u.]                                              1.82288848426455E+03
 [Angstrom] -> [Bohr] = [a.u.]                              1.88972613288564E+00
 [a.u.] = [Bohr] -> [Angstrom]                              5.29177208590000E-01
 [a.u.] -> [s]                                              2.41888432650478E-17
 [a.u.] -> [fs]                                             2.41888432650478E-02
 [a.u.] -> [J]                                              4.35974393937059E-18
 [a.u.] -> [N]                                              8.23872205491840E-08
 [a.u.] -> [K]                                              3.15774647902944E+05
 [a.u.] -> [kJ/mol]                                         2.62549961709828E+03
 [a.u.] -> [kcal/mol]                                       6.27509468713739E+02
 [a.u.] -> [Pa]                                             2.94210107994716E+13
 [a.u.] -> [bar]                                            2.94210107994716E+08
 [a.u.] -> [atm]                                            2.90362800883016E+08
 [a.u.] -> [eV]                                             2.72113838565563E+01
 [a.u.] -> [Hz]                                             6.57968392072181E+15
 [a.u.] -> [1/cm] (wave numbers)                            2.19474631370540E+05
 [a.u./Bohr**2] -> [1/cm]                                   5.14048714338585E+03
 

 CELL_TOP| Volume [angstrom^3]:                                      1000.000000
 CELL_TOP| Vector a [angstrom    10.000     0.000     0.000   |a| =    10.000000
 CELL_TOP| Vector b [angstrom     0.000    10.000     0.000   |b| =    10.000000
 CELL_TOP| Vector c [angstrom     0.000     0.000    10.000   |c| =    10.000000
 CELL_TOP| Angle (b,c), alpha [degree]:                                90.000000
 CELL_TOP| Angle (a,c), beta  [degree]:                                90.000000
 CELL_TOP| Angle (a,b), gamma [degree]:                                90.000000
 CELL_TOP| Numerically orthorhombic:                                         YES
 CELL_TOP| Periodicity                                                      NONE

 CELL| Volume [angstrom^3]:                                          1000.000000
 CELL| Vector a [angstrom]:      10.000     0.000     0.000   |a| =    10.000000
 CELL| Vector b [angstrom]:       0.000    10.000     0.000   |b| =    10.000000
 CELL| Vector c [angstrom]:       0.000     0.000    10.000   |c| =    10.000000
 CELL| Angle (b,c), alpha [degree]:                                    90.000000
 CELL| Angle (a,c), beta  [degree]:                                    90.000000
 CELL| Angle (a,b), gamma [degree]:                                    90.000000
 CELL| Numerically orthorhombic:                                             YES
 CELL| Periodicity                                                          NONE

 CELL_REF| Volume [angstrom^3]:                                      1000.000000
 CELL_REF| Vector a [angstrom    10.000     0.000     0.000   |a| =    10.000000
 CELL_REF| Vector b [angstrom     0.000    10.000     0.000   |b| =    10.000000
 CELL_REF| Vector c [angstrom     0.000     0.000    10.000   |c| =    10.000000
 CELL_REF| Angle (b,c), alpha [degree]:                                90.000000
 CELL_REF| Angle (a,c), beta  [degree]:                                90.000000
 CELL_REF| Angle (a,b), gamma [degree]:                                90.000000
 CELL_REF| Numerically orthorhombic:                                         YES
 CELL_REF| Periodicity                                                      NONE

 *******************************************************************************
 *******************************************************************************
 **                                                                           **
 **     #####                         ##              ##                      **
 **    ##   ##            ##          ##              ##                      **
 **   ##     ##                       ##            ######                    **
 **   ##     ##  ##   ##  ##   #####  ##  ##   ####   ##    #####    #####    **
 **   ##     ##  ##   ##  ##  ##      ## ##   ##      ##   ##   ##  ##   ##   **
 **   ##  ## ##  ##   ##  ##  ##      ####     ###    ##   ######   ######    **
 **    ##  ###   ##   ##  ##  ##      ## ##      ##   ##   ##       ##        **
 **     #######   #####   ##   #####  ##  ##  ####    ##    #####   ##        **
 **           ##                                                    ##        **
 **                                                                           **
 **                                                ... make the atoms dance   **
 **                                                                           **
 **            Copyright (C) by CP2K developers group (2000-2023)             **
 **                      J. Chem. Phys. 152, 194103 (2020)                    **
 **                                                                           **
 *******************************************************************************

 DFT| Spin restricted Kohn-Sham (RKS) calculation                            RKS
 DFT| Multiplicity                                                             1
 DFT| Number of spin states                                                    1
 DFT| Charge                                                                   0
 DFT| Self-interaction correction (SIC)                                       NO
 DFT| Cutoffs: density                                              1.000000E-10
 DFT|          gradient                                             1.000000E-10
 DFT|          tau                                                  1.000000E-10
 DFT|          cutoff_smoothing_range                               0.000000E+00
 DFT| XC density smoothing                                                  NONE
 DFT| XC derivatives                                                          PW

 FUNCTIONAL| PBE:
 FUNCTIONAL| J.P.Perdew, K.Burke, M.Ernzerhof, Phys. Rev. Letter, vol. 77, n 18,
 FUNCTIONAL|  pp. 3865-3868, (1996)sx=0.750sc=1.000{spin unpolarized}           


 QS| Method:                                                                GAPW
 QS| Density plane wave grid type                        NON-SPHERICAL FULLSPACE
 QS| Number of grid levels:                                                    5
 QS| Density cutoff [a.u.]:                                                600.0
 QS| Multi grid cutoff [a.u.]: 1) grid level                               600.0
 QS|                           2) grid level                               200.0
 QS|                           3) grid level                                66.7
 QS|                           4) grid level                                22.2
 QS|                           5) grid level                                 7.4
 QS| Grid level progression factor:                                          3.0
 QS| Relative density cutoff [a.u.]:                                        40.0
 QS| Interaction thresholds: eps_pgf_orb:                                1.0E-30
 QS|                         eps_filter_matrix:                          0.0E+00
 QS|                         eps_core_charge:                            1.0E-17
 QS|                         eps_rho_gspace:                             1.0E-15
 QS|                         eps_rho_rspace:                             1.0E-15
 QS|                         eps_gvg_rspace:                             3.2E-08
 QS|                         eps_ppl:                                    1.0E-02
 QS|                         eps_ppnl:                                   3.2E-10
 QS| GAPW|      One center basis from orbital basis primitives
 QS| GAPW|                   eps_fit:                                    1.0E-04
 QS| GAPW|                   eps_iso:                                    1.0E-12
 QS| GAPW|                   eps_svd:                                    1.0E-08
 QS| GAPW|                   eps_cpc:                                    1.0E-15
 QS| GAPW|   atom-r-grid: quadrature:                                     GC_LOG
 QS| GAPW|      atom-s-grid:  max l :                                          6
 QS| GAPW|      max_l_rho0 :                                                   2


 ATOMIC KIND INFORMATION

  1. Atomic kind: C                                     Number of atoms:       8

     Orbital Basis Set                                        Ahlrichs-def2-TZVP

       Number of orbital shell sets:                                          11
       Number of orbital shells:                                              11
       Number of primitive Cartesian functions:                               20
       Number of Cartesian basis functions:                                   36
       Number of spherical basis functions:                                   31
       Norm type:                                                              2

       Normalised Cartesian orbitals:

                        Set   Shell   Orbital            Exponent    Coefficient

                          1       1    1s            13575.349682       0.543591
                                                      2035.233368       1.014554
                                                       463.225624       1.731573
                                                       131.200196       2.691038
                                                        42.853016       3.604455
                                                        15.584186       3.702556

                          2       1    1s                6.206714       1.838354
                                                         2.576490       0.544758

                          3       1    1s                0.576963       0.471815

                          4       1    1s                0.229728       0.236494

                          5       1    1s                0.095164       0.122114

                          6       1    1px              34.697232       1.359665
                                                         7.958262       1.451259
                                                         2.378083       1.270923
                                                         0.814332       0.802572
                          6       1    1py              34.697232       1.359665
                                                         7.958262       1.451259
                                                         2.378083       1.270923
                                                         0.814332       0.802572
                          6       1    1pz              34.697232       1.359665
                                                         7.958262       1.451259
                                                         2.378083       1.270923
                                                         0.814332       0.802572

                          7       1    1px               0.288875       0.301876
                          7       1    1py               0.288875       0.301876
                          7       1    1pz               0.288875       0.301876

                          8       1    1px               0.100568       0.080727
                          8       1    1py               0.100568       0.080727
                          8       1    1pz               0.100568       0.080727

                          9       1    1dx2              1.097000       1.935401
                          9       1    1dxy              1.097000       3.352214
                          9       1    1dxz              1.097000       3.352214
                          9       1    1dy2              1.097000       1.935401
                          9       1    1dyz              1.097000       3.352214
                          9       1    1dz2              1.097000       1.935401

                         10       1    1dx2              0.318000       0.221644
                         10       1    1dxy              0.318000       0.383899
                         10       1    1dxz              0.318000       0.383899
                         10       1    1dy2              0.318000       0.221644
                         10       1    1dyz              0.318000       0.383899
                         10       1    1dz2              0.318000       0.221644

                         11       1    1fx3              0.761000       0.796288
                         11       1    1fx2y             0.761000       1.780553
                         11       1    1fx2z             0.761000       1.780553
                         11       1    1fxy2             0.761000       1.780553
                         11       1    1fxyz             0.761000       3.084008
                         11       1    1fxz2             0.761000       1.780553
                         11       1    1fy3              0.761000       0.796288
                         11       1    1fy2z             0.761000       1.780553
                         11       1    1fyz2             0.761000       1.780553
                         11       1    1fz3              0.761000       0.796288

       Atomic covalent radius [Angstrom]:                                  0.770

       Atomic van der Waals radius [Angstrom]:                             1.700

     The atoms of this atomic kind are PAW atoms (GAPW):
       Hard Gaussian function radius:                                      1.512
       Rho0 radius:                                                        1.512
       Maximum GTO radius used for PAW projector construction:            24.566

     GAPW Soft Basis Set                                 Ahlrichs-def2-TZVP_soft

       Number of orbital shell sets:                                          11
       Number of orbital shells:                                              11
       Number of primitive Cartesian functions:                               11
       Number of Cartesian basis functions:                                   36
       Number of spherical basis functions:                                   31
       Norm type:                                                              2

       Normalised Cartesian orbitals:

                        Set   Shell   Orbital            Exponent    Coefficient

                          1       1    1s         

                          2       1    1s                2.576490       0.544758

                          3       1    1s                0.576963       0.471815

                          4       1    1s                0.229728       0.236494

                          5       1    1s                0.095164       0.122114

                          6       1    1px               2.378083       1.270923
                                                         0.814332       0.802572
                          6       1    1py               2.378083       1.270923
                                                         0.814332       0.802572
                          6       1    1pz               2.378083       1.270923
                                                         0.814332       0.802572

                          7       1    1px               0.288875       0.301876
                          7       1    1py               0.288875       0.301876
                          7       1    1pz               0.288875       0.301876

                          8       1    1px               0.100568       0.080727
                          8       1    1py               0.100568       0.080727
                          8       1    1pz               0.100568       0.080727

                          9       1    1dx2              1.097000       1.935401
                          9       1    1dxy              1.097000       3.352214
                          9       1    1dxz              1.097000       3.352214
                          9       1    1dy2              1.097000       1.935401
                          9       1    1dyz              1.097000       3.352214
                          9       1    1dz2              1.097000       1.935401

                         10       1    1dx2              0.318000       0.221644
                         10       1    1dxy              0.318000       0.383899
                         10       1    1dxz              0.318000       0.383899
                         10       1    1dy2              0.318000       0.221644
                         10       1    1dyz              0.318000       0.383899
                         10       1    1dz2              0.318000       0.221644

                         11       1    1fx3              0.761000       0.796288
                         11       1    1fx2y             0.761000       1.780553
                         11       1    1fx2z             0.761000       1.780553
                         11       1    1fxy2             0.761000       1.780553
                         11       1    1fxyz             0.761000       3.084008
                         11       1    1fxz2             0.761000       1.780553
                         11       1    1fy3              0.761000       0.796288
                         11       1    1fy2z             0.761000       1.780553
                         11       1    1fyz2             0.761000       1.780553
                         11       1    1fz3              0.761000       0.796288

     AE Potential information for                                            ALL

       Description:                                       All-electron potential
                                          Krack, Parrinello, PCCP 2, 2105 (2000)

       Gaussian exponent of the core charge distribution:               4.109048
       Electronic configuration (s p d ...):                           4   2   0

  2. Atomic kind: N                                     Number of atoms:       2

     Orbital Basis Set                                        Ahlrichs-def2-TZVP

       Number of orbital shell sets:                                          11
       Number of orbital shells:                                              11
       Number of primitive Cartesian functions:                               20
       Number of Cartesian basis functions:                                   36
       Number of spherical basis functions:                                   31
       Norm type:                                                              2

       Normalised Cartesian orbitals:

                        Set   Shell   Orbital            Exponent    Coefficient

                          1       1    1s            19730.800647       0.695604
                                                      2957.895874       1.298610
                                                       673.221336       2.219088
                                                       190.682495       3.463661
                                                        62.295442       4.696756
                                                        22.654161       4.952251

                          2       1    1s                8.979148       2.388068
                                                         3.686300       0.733788

                          3       1    1s                0.846601       0.629027

                          4       1    1s                0.336471       0.314863

                          5       1    1s                0.136477       0.160031

                          6       1    1px              49.200381       2.126481
                                                        11.346791       2.327937
                                                         3.427397       2.048573
                                                         1.178553       1.260732
                          6       1    1py              49.200381       2.126481
                                                        11.346791       2.327937
                                                         3.427397       2.048573
                                                         1.178553       1.260732
                          6       1    1pz              49.200381       2.126481
                                                        11.346791       2.327937
                                                         3.427397       2.048573
                                                         1.178553       1.260732

                          7       1    1px               0.416422       0.476823
                          7       1    1py               0.416422       0.476823
                          7       1    1pz               0.416422       0.476823

                          8       1    1px               0.142608       0.124917
                          8       1    1py               0.142608       0.124917
                          8       1    1pz               0.142608       0.124917

                          9       1    1dx2              1.654000       3.970513
                          9       1    1dxy              1.654000       6.877130
                          9       1    1dxz              1.654000       6.877130
                          9       1    1dy2              1.654000       3.970513
                          9       1    1dyz              1.654000       6.877130
                          9       1    1dz2              1.654000       3.970513

                         10       1    1dx2              0.469000       0.437484
                         10       1    1dxy              0.469000       0.757744
                         10       1    1dxz              0.469000       0.757744
                         10       1    1dy2              0.469000       0.437484
                         10       1    1dyz              0.469000       0.757744
                         10       1    1dz2              0.469000       0.437484

                         11       1    1fx3              1.093000       1.798249
                         11       1    1fx2y             1.093000       4.021007
                         11       1    1fx2z             1.093000       4.021007
                         11       1    1fxy2             1.093000       4.021007
                         11       1    1fxyz             1.093000       6.964588
                         11       1    1fxz2             1.093000       4.021007
                         11       1    1fy3              1.093000       1.798249
                         11       1    1fy2z             1.093000       4.021007
                         11       1    1fyz2             1.093000       4.021007
                         11       1    1fz3              1.093000       1.798249

       Atomic covalent radius [Angstrom]:                                  0.750

       Atomic van der Waals radius [Angstrom]:                             1.550

     The atoms of this atomic kind are PAW atoms (GAPW):
       Hard Gaussian function radius:                                      1.512
       Rho0 radius:                                                        1.512
       Maximum GTO radius used for PAW projector construction:            24.566

     GAPW Soft Basis Set                                 Ahlrichs-def2-TZVP_soft

       Number of orbital shell sets:                                          11
       Number of orbital shells:                                              11
       Number of primitive Cartesian functions:                               11
       Number of Cartesian basis functions:                                   36
       Number of spherical basis functions:                                   31
       Norm type:                                                              2

       Normalised Cartesian orbitals:

                        Set   Shell   Orbital            Exponent    Coefficient

                          1       1    1s         

                          2       1    1s                3.686300       0.733788

                          3       1    1s                0.846601       0.629027

                          4       1    1s                0.336471       0.314863

                          5       1    1s                0.136477       0.160031

                          6       1    1px               3.427397       2.048573
                                                         1.178553       1.260732
                          6       1    1py               3.427397       2.048573
                                                         1.178553       1.260732
                          6       1    1pz               3.427397       2.048573
                                                         1.178553       1.260732

                          7       1    1px               0.416422       0.476823
                          7       1    1py               0.416422       0.476823
                          7       1    1pz               0.416422       0.476823

                          8       1    1px               0.142608       0.124917
                          8       1    1py               0.142608       0.124917
                          8       1    1pz               0.142608       0.124917

                          9       1    1dx2              1.654000       3.970513
                          9       1    1dxy              1.654000       6.877130
                          9       1    1dxz              1.654000       6.877130
                          9       1    1dy2              1.654000       3.970513
                          9       1    1dyz              1.654000       6.877130
                          9       1    1dz2              1.654000       3.970513

                         10       1    1dx2              0.469000       0.437484
                         10       1    1dxy              0.469000       0.757744
                         10       1    1dxz              0.469000       0.757744
                         10       1    1dy2              0.469000       0.437484
                         10       1    1dyz              0.469000       0.757744
                         10       1    1dz2              0.469000       0.437484

                         11       1    1fx3              1.093000       1.798249
                         11       1    1fx2y             1.093000       4.021007
                         11       1    1fx2z             1.093000       4.021007
                         11       1    1fxy2             1.093000       4.021007
                         11       1    1fxyz             1.093000       6.964588
                         11       1    1fxz2             1.093000       4.021007
                         11       1    1fy3              1.093000       1.798249
                         11       1    1fy2z             1.093000       4.021007
                         11       1    1fyz2             1.093000       4.021007
                         11       1    1fz3              1.093000       1.798249

     AE Potential information for                                            ALL

       Description:                                       All-electron potential
                                          Krack, Parrinello, PCCP 2, 2105 (2000)

       Gaussian exponent of the core charge distribution:               5.979100
       Electronic configuration (s p d ...):                           4   3   0

  3. Atomic kind: H                                     Number of atoms:       6

     Orbital Basis Set                                        Ahlrichs-def2-TZVP

       Number of orbital shell sets:                                           4
       Number of orbital shells:                                               4
       Number of primitive Cartesian functions:                                6
       Number of Cartesian basis functions:                                    6
       Number of spherical basis functions:                                    6
       Norm type:                                                              2

       Normalised Cartesian orbitals:

                        Set   Shell   Orbital            Exponent    Coefficient

                          1       1    1s               34.061341       0.255630
                                                         5.123575       0.461360
                                                         1.164663       0.681121

                          2       1    1s                0.327230       0.308355

                          3       1    1s                0.103072       0.129648

                          4       1    1px               0.800000       1.078456
                          4       1    1py               0.800000       1.078456
                          4       1    1pz               0.800000       1.078456

       Atomic covalent radius [Angstrom]:                                  0.320

       Atomic van der Waals radius [Angstrom]:                             1.090

     The atoms of this atomic kind are PAW atoms (GAPW):
       Hard Gaussian function radius:                                      1.200
       Rho0 radius:                                                        1.200
       Maximum GTO radius used for PAW projector construction:            24.566

     GAPW Soft Basis Set                                 Ahlrichs-def2-TZVP_soft

       Number of orbital shell sets:                                           4
       Number of orbital shells:                                               4
       Number of primitive Cartesian functions:                                5
       Number of Cartesian basis functions:                                    6
       Number of spherical basis functions:                                    6
       Norm type:                                                              2

       Normalised Cartesian orbitals:

                        Set   Shell   Orbital            Exponent    Coefficient

                          1       1    1s                5.123575       0.461360
                                                         1.164663       0.681121

                          2       1    1s                0.327230       0.308355

                          3       1    1s                0.103072       0.129648

                          4       1    1px               0.800000       1.078456
                          4       1    1py               0.800000       1.078456
                          4       1    1pz               0.800000       1.078456

     AE Potential information for                                            ALL

       Description:                                       All-electron potential
                                          Krack, Parrinello, PCCP 2, 2105 (2000)

       Gaussian exponent of the core charge distribution:              12.500000
       Electronic configuration (s p d ...):                           1   0   0


 MOLECULE KIND INFORMATION


 All atoms are their own molecule, skipping detailed information


 TOTAL NUMBERS AND MAXIMUM NUMBERS

  Total number of            - Atomic kinds:                                   3
                             - Atoms:                                         16
                             - Shell sets:                                   134
                             - Shells:                                       134
                             - Primitive Cartesian functions:                236
                             - Cartesian basis functions:                    396
                             - Spherical basis functions:                    346

  Maximum angular momentum of the orbital basis functions:                     3


 MODULE QUICKSTEP: ATOMIC COORDINATES IN ANGSTROM

   Atom Kind Element         X             Y             Z       Z(eff)     Mass
      1    1 C     6      4.286358      4.936873      5.000000   6.0000  12.0107
      2    1 C     6      5.708447      4.922016      5.000000   6.0000  12.0107
      3    1 C     6      3.593312      6.169572      5.000000   6.0000  12.0107
      4    1 C     6      4.297827      7.347197      5.000000   6.0000  12.0107
      5    1 C     6      5.712469      7.333461      5.000000   6.0000  12.0107
      6    1 C     6      6.409160      6.150254      5.000000   6.0000  12.0107
      7    2 N     7      6.394630      3.744121      5.000000   7.0000  14.0067
      8    1 C     6      3.656722      3.669390      5.000000   6.0000  12.0107
      9    2 N     7      4.325354      2.540781      5.000000   7.0000  14.0067
     10    1 C     6      5.682440      2.645406      5.000000   6.0000  12.0107
     11    3 H     1      2.570329      3.604260      5.000000   1.0000   1.0079
     12    3 H     1      6.222944      1.704549      5.000000   1.0000   1.0079
     13    3 H     1      2.508801      6.169894      5.000000   1.0000   1.0079
     14    3 H     1      3.774373      8.295451      5.000000   1.0000   1.0079
     15    3 H     1      6.249853      8.274389      5.000000   1.0000   1.0079
     16    3 H     1      7.491199      6.122082      5.000000   1.0000   1.0079



 SCF PARAMETERS         Density guess:                                    ATOMIC
                        --------------------------------------------------------
                        max_scf:                                              20
                        max_scf_history:                                       0
                        max_diis:                                              4
                        --------------------------------------------------------
                        eps_scf:                                        1.00E-07
                        eps_scf_history:                                0.00E+00
                        eps_diis:                                       1.00E-01
                        eps_eigval:                                     1.00E-05
                        --------------------------------------------------------
                        level_shift [a.u.]:                             0.000000
                        --------------------------------------------------------
                        Outer loop SCF in use 
                        No variables optimised in outer loop
                        eps_scf                                         1.00E-07
                        max_scf                                              200
                        No outer loop optimization
                        step_size                                       5.00E-01

 PW_GRID| Information for grid number                                          1
 PW_GRID| Grid distributed over                                   128 processors
 PW_GRID| Real space group dimensions                                   128    1
 PW_GRID| the grid is blocked:                                                NO
 PW_GRID| Cutoff [a.u.]                                                   1200.0
 PW_GRID| spherical cutoff:                                                   NO
 PW_GRID|   Bounds   1           -150     149                Points:         300
 PW_GRID|   Bounds   2           -150     149                Points:         300
 PW_GRID|   Bounds   3           -150     149                Points:         300
 PW_GRID| Volume element (a.u.^3)  0.2499E-03     Volume (a.u.^3)      6748.3346
 PW_GRID| Grid span                                                    FULLSPACE
 PW_GRID|   Distribution                         Average         Max         Min
 PW_GRID|   G-Vectors                           210937.5      211200      210900
 PW_GRID|   G-Rays                                 703.1         704         703
 PW_GRID|   Real Space Points                   210937.5      270000      180000

 PW_GRID| Information for grid number                                          2
 PW_GRID| Number of the reference grid                                         1
 PW_GRID| Grid distributed over                                   128 processors
 PW_GRID| Real space group dimensions                                   128    1
 PW_GRID| the grid is blocked:                                                NO
 PW_GRID| Cutoff [a.u.]                                                    600.0
 PW_GRID| spherical cutoff:                                                   NO
 PW_GRID|   Bounds   1           -108     107                Points:         216
 PW_GRID|   Bounds   2           -108     107                Points:         216
 PW_GRID|   Bounds   3           -108     107                Points:         216
 PW_GRID| Volume element (a.u.^3)  0.6696E-03     Volume (a.u.^3)      6748.3346
 PW_GRID| Grid span                                                    FULLSPACE
 PW_GRID|   Distribution                         Average         Max         Min
 PW_GRID|   G-Vectors                            78732.0       79056       78408
 PW_GRID|   G-Rays                                 364.5         366         363
 PW_GRID|   Real Space Points                    78732.0       93312       46656

 PW_GRID| Information for grid number                                          3
 PW_GRID| Number of the reference grid                                         2
 PW_GRID| Grid distributed over                                   128 processors
 PW_GRID| Real space group dimensions                                     8   16
 PW_GRID| the grid is blocked:                                                NO
 PW_GRID| Cutoff [a.u.]                                                    200.0
 PW_GRID| spherical cutoff:                                                   NO
 PW_GRID|   Bounds   1            -62      62                Points:         125
 PW_GRID|   Bounds   2            -62      62                Points:         125
 PW_GRID|   Bounds   3            -62      62                Points:         125
 PW_GRID| Volume element (a.u.^3)  0.3455E-02     Volume (a.u.^3)      6748.3346
 PW_GRID| Grid span                                                    FULLSPACE
 PW_GRID|   Distribution                         Average         Max         Min
 PW_GRID|   G-Vectors                            15258.8       15875       14750
 PW_GRID|   G-Rays                                 122.1         127         118
 PW_GRID|   Real Space Points                    15258.8       16000       13125

 PW_GRID| Information for grid number                                          4
 PW_GRID| Number of the reference grid                                         2
 PW_GRID| Grid distributed over                                   128 processors
 PW_GRID| Real space group dimensions                                     8   16
 PW_GRID| the grid is blocked:                                                NO
 PW_GRID| Cutoff [a.u.]                                                     66.7
 PW_GRID| spherical cutoff:                                                   NO
 PW_GRID|   Bounds   1            -36      35                Points:          72
 PW_GRID|   Bounds   2            -36      35                Points:          72
 PW_GRID|   Bounds   3            -36      35                Points:          72
 PW_GRID| Volume element (a.u.^3)  0.1808E-01     Volume (a.u.^3)      6748.3346
 PW_GRID| Grid span                                                    FULLSPACE
 PW_GRID|   Distribution                         Average         Max         Min
 PW_GRID|   G-Vectors                             2916.0        2952        2880
 PW_GRID|   G-Rays                                  40.5          41          40
 PW_GRID|   Real Space Points                     2916.0        3240        2592

 PW_GRID| Information for grid number                                          5
 PW_GRID| Number of the reference grid                                         2
 PW_GRID| Grid distributed over                                   128 processors
 PW_GRID| Real space group dimensions                                     8   16
 PW_GRID| the grid is blocked:                                                NO
 PW_GRID| Cutoff [a.u.]                                                     22.2
 PW_GRID| spherical cutoff:                                                   NO
 PW_GRID|   Bounds   1            -22      22                Points:          45
 PW_GRID|   Bounds   2            -22      22                Points:          45
 PW_GRID|   Bounds   3            -22      22                Points:          45
 PW_GRID| Volume element (a.u.^3)  0.7406E-01     Volume (a.u.^3)      6748.3346
 PW_GRID| Grid span                                                    FULLSPACE
 PW_GRID|   Distribution                         Average         Max         Min
 PW_GRID|   G-Vectors                              711.9         810         630
 PW_GRID|   G-Rays                                  15.8          18          14
 PW_GRID|   Real Space Points                      711.9         810         450

 PW_GRID| Information for grid number                                          6
 PW_GRID| Number of the reference grid                                         2
 PW_GRID| Grid distributed over                                   128 processors
 PW_GRID| Real space group dimensions                                     8   16
 PW_GRID| the grid is blocked:                                                NO
 PW_GRID| Cutoff [a.u.]                                                      7.4
 PW_GRID| spherical cutoff:                                                   NO
 PW_GRID|   Bounds   1            -12      11                Points:          24
 PW_GRID|   Bounds   2            -12      11                Points:          24
 PW_GRID|   Bounds   3            -12      11                Points:          24
 PW_GRID| Volume element (a.u.^3)  0.4882         Volume (a.u.^3)      6748.3346
 PW_GRID| Grid span                                                    FULLSPACE
 PW_GRID|   Distribution                         Average         Max         Min
 PW_GRID|   G-Vectors                              108.0         120          96
 PW_GRID|   G-Rays                                   4.5           5           4
 PW_GRID|   Real Space Points                      108.0         144          72

 POISSON| Solver                                          Martyna-Tuckerman (MT)
 POISSON| MT| Alpha                                                        7.000
 POISSON| MT| Relative cutoff                                                2.0
 POISSON| Periodicity                                                       NONE

 RS_GRID| Information for grid number                                          2
 RS_GRID|   Bounds   1           -108     107                Points:         216
 RS_GRID|   Bounds   2           -108     107                Points:         216
 RS_GRID|   Bounds   3           -108     107                Points:         216
 RS_GRID| Real space distribution over                                  4 groups
 RS_GRID| Real space distribution along direction                              1
 RS_GRID| Border size                                                         37
 RS_GRID| Real space distribution over                                  4 groups
 RS_GRID| Real space distribution along direction                              2
 RS_GRID| Border size                                                         37
 RS_GRID| Real space distribution over                                  8 groups
 RS_GRID| Real space distribution along direction                              3
 RS_GRID| Border size                                                         37
 RS_GRID|   Distribution                         Average         Max         Min
 RS_GRID|   Planes                                 128.0         128         128
 RS_GRID|   Distribution                         Average         Max         Min
 RS_GRID|   Planes                                 128.0         128         128
 RS_GRID|   Distribution                         Average         Max         Min
 RS_GRID|   Planes                                 101.0         101         101

 RS_GRID| Information for grid number                                          3
 RS_GRID|   Bounds   1            -62      62                Points:         125
 RS_GRID|   Bounds   2            -62      62                Points:         125
 RS_GRID|   Bounds   3            -62      62                Points:         125
 RS_GRID| Real space distribution over                                  4 groups
 RS_GRID| Real space distribution along direction                              1
 RS_GRID| Border size                                                         35
 RS_GRID| Real space distribution over                                  4 groups
 RS_GRID| Real space distribution along direction                              2
 RS_GRID| Border size                                                         35
 RS_GRID| Real space distribution over                                  8 groups
 RS_GRID| Real space distribution along direction                              3
 RS_GRID| Border size                                                         35
 RS_GRID|   Distribution                         Average         Max         Min
 RS_GRID|   Planes                                 101.2         102         101
 RS_GRID|   Distribution                         Average         Max         Min
 RS_GRID|   Planes                                 101.2         102         101
 RS_GRID|   Distribution                         Average         Max         Min
 RS_GRID|   Planes                                  85.6          86          85

 RS_GRID| Information for grid number                                          4
 RS_GRID|   Bounds   1            -36      35                Points:          72
 RS_GRID|   Bounds   2            -36      35                Points:          72
 RS_GRID|   Bounds   3            -36      35                Points:          72
 RS_GRID| Real space fully replicated
 RS_GRID| Group size                                                           1

 RS_GRID| Information for grid number                                          5
 RS_GRID|   Bounds   1            -22      22                Points:          45
 RS_GRID|   Bounds   2            -22      22                Points:          45
 RS_GRID|   Bounds   3            -22      22                Points:          45
 RS_GRID| Real space fully replicated
 RS_GRID| Group size                                                           1

 RS_GRID| Information for grid number                                          6
 RS_GRID|   Bounds   1            -12      11                Points:          24
 RS_GRID|   Bounds   2            -12      11                Points:          24
 RS_GRID|   Bounds   3            -12      11                Points:          24
 RS_GRID| Real space fully replicated
 RS_GRID| Group size                                                           1

  HFX_INFO| Replica ID:                                                        1
  HFX_INFO| FRACTION:                                               0.2500000000
  HFX_INFO| Interaction Potential:                                       COULOMB
  HFX_INFO| EPS_SCHWARZ:                                                 1.0E-10
  HFX_INFO| EPS_SCHWARZ_FORCES                                           1.0E-06
  HFX_INFO| EPS_STORAGE_SCALING:                                         1.0E+00
  HFX_INFO| NBINS:                                                            64
  HFX_INFO| BLOCK_SIZE:                                                        1
  HFX_INFO| Number of periodic shells considered:                           NONE
  HFX_INFO| Number of periodic cells considered:                            NONE


 Number of electrons:                                                         68
 Number of occupied orbitals:                                                 34
 Number of molecular orbitals:                                                34

 Number of orbital functions:                                                346
 Number of independent orbital functions:                                    346

 Extrapolation method: initial_guess

 Atomic guess: The first density matrix is obtained in terms of atomic orbitals
               and electronic configurations assigned to each atomic kind

 Guess for atomic kind: C

 Electronic structure
    Total number of core electrons                                          0.00
    Total number of valence electrons                                       6.00
    Total number of electrons                                               6.00
    Multiplicity                                                   not specified
    S      2.00  2.00
    P      2.00
 

 *******************************************************************************
                  Iteration          Convergence                     Energy [au]
 *******************************************************************************
                          1        0.147208                     -37.407693601264
                          2        0.119028                     -37.412727810384
                          3        0.151591E-02                 -37.421609589284
                          4        0.252468E-03                 -37.421611675915
                          5        0.320487E-05                 -37.421611714904
                          6        0.162446E-06                 -37.421611714918

 Energy components [Hartree]           Total Energy ::          -37.421611714918
                                        Band Energy ::          -21.277675770449
                                     Kinetic Energy ::           37.196286588355
                                   Potential Energy ::          -74.617898303274
                                      Virial (-V/T) ::            2.006057731758
                                        Core Energy ::          -50.332032480142
                                          XC Energy ::           -4.732819490143
                                     Coulomb Energy ::           17.643240255367

 Orbital energies  State     L     Occupation   Energy[a.u.]          Energy[eV]

                       1     0          2.000      -9.943251         -270.569607
                       2     0          2.000      -0.498684          -13.569893
 
                       1     1          2.000      -0.196903           -5.358002
 

 Total Electron Density at R=0:                                       121.622713

 Guess for atomic kind: N

 Electronic structure
    Total number of core electrons                                          0.00
    Total number of valence electrons                                       7.00
    Total number of electrons                                               7.00
    Multiplicity                                                   not specified
    S      2.00  2.00
    P      3.00
 

 *******************************************************************************
                  Iteration          Convergence                     Energy [au]
 *******************************************************************************
                          1        0.380519                     -53.980466341383
                          2        0.378247                     -53.984135962459
                          3        0.134995E-01                 -54.018715315788
                          4        0.495764E-03                 -54.018772519246
                          5        0.432099E-04                 -54.018772571804
                          6        0.442273E-07                 -54.018772572302

 Energy components [Hartree]           Total Energy ::          -54.018772572302
                                        Band Energy ::          -30.143749938617
                                     Kinetic Energy ::           53.734490267735
                                   Potential Energy ::         -107.753262840037
                                      Virial (-V/T) ::            2.005290499699
                                        Core Energy ::          -73.699523175203
                                          XC Energy ::           -6.145173260726
                                     Coulomb Energy ::           25.825923863626

 Orbital energies  State     L     Occupation   Energy[a.u.]          Energy[eV]

                       1     0          2.000     -14.006310         -381.131070
                       2     0          2.000      -0.672190          -18.291221
 
                       1     1          3.000      -0.262250           -7.136190
 

 Total Electron Density at R=0:                                       197.177759

 Guess for atomic kind: H

 Electronic structure
    Total number of core electrons                                          0.00
    Total number of valence electrons                                       1.00
    Total number of electrons                                               1.00
    Multiplicity                                                   not specified
    S      1.00
 

 *******************************************************************************
                  Iteration          Convergence                     Energy [au]
 *******************************************************************************
                          1        0.917598E-02                  -0.444895232610
                          2        0.101733E-02                  -0.444969959338
                          3        0.739292E-04                  -0.444971980690
                          4        0.601377E-07                  -0.444971989573

 Energy components [Hartree]           Total Energy ::           -0.444971989573
                                        Band Energy ::           -0.230448725171
                                     Kinetic Energy ::            0.428990089350
                                   Potential Energy ::           -0.873962078923
                                      Virial (-V/T) ::            2.037254707321
                                        Core Energy ::           -0.496265746842
                                          XC Energy ::           -0.234272986041
                                     Coulomb Energy ::            0.285566743311

 Orbital energies  State     L     Occupation   Energy[a.u.]          Energy[eV]

                       1     0          1.000      -0.230449           -6.270829
 

 Total Electron Density at R=0:                                         0.247098
 Re-scaling the density matrix to get the right number of electrons
                  # Electrons              Trace(P)               Scaling factor
                           68                68.000                        1.000


 SCF WAVEFUNCTION OPTIMIZATION

  ----------------------------------- OT ---------------------------------------
  Minimizer      : DIIS                : direct inversion
                                         in the iterative subspace
                                         using   7 DIIS vectors
                                         safer DIIS on
  Preconditioner : FULL_ALL            : diagonalization, state selective
  Precond_solver : DEFAULT
  stepsize       :    0.15000000                  energy_gap     :    0.08000000
  eps_taylor     :   0.10000E-15                  max_taylor     :             4
  ----------------------------------- OT ---------------------------------------

  Step     Update method      Time    Convergence         Total energy    Change
  ------------------------------------------------------------------------------

  HFX_MEM_INFO| Est. max. program size before HFX [MiB]:                     479
  HFX_MEM_INFO| Number of cart. primitive ERI's calculated:           8572156885
  HFX_MEM_INFO| Number of sph. ERI's calculated:                      1820687600
  HFX_MEM_INFO| Number of sph. ERI's stored in-core:                  1820687600
  HFX_MEM_INFO| Number of sph. ERI's stored on disk:                           0
  HFX_MEM_INFO| Number of sph. ERI's calculated on the fly:                    0
  HFX_MEM_INFO| Total memory consumption ERI's RAM [MiB]:                   4807
  HFX_MEM_INFO| Whereof max-vals [MiB]:                                       17
  HFX_MEM_INFO| Total compression factor ERI's RAM:                         2.89
  HFX_MEM_INFO| Total memory consumption ERI's disk [MiB]:                     0
  HFX_MEM_INFO| Total compression factor ERI's disk:                        0.00
  HFX_MEM_INFO| Size of density/Fock matrix [MiB]:                             0
  HFX_MEM_INFO| Size of buffers [MiB]:                                         0
  HFX_MEM_INFO| Est. max. program size after HFX  [MiB]:                     867

     1 OT DIIS     0.15E+00   48.9     0.12758082      -395.2045185124 -3.95E+02
     2 OT DIIS     0.15E+00   30.6     0.03995479      -413.1753611920 -1.80E+01
     3 OT DIIS     0.15E+00   28.6     0.01916411      -415.3080029557 -2.13E+00
     4 OT DIIS     0.15E+00   31.0     0.01476380      -415.8847824533 -5.77E-01
     5 OT DIIS     0.15E+00   31.2     0.01227461      -416.3999177619 -5.15E-01
     6 OT DIIS     0.15E+00   31.5     0.00961114      -416.9037925676 -5.04E-01
     7 OT DIIS     0.15E+00   32.0     0.00746686      -417.2182012325 -3.14E-01
     8 OT DIIS     0.15E+00   31.7     0.00545856      -417.4766422200 -2.58E-01
     9 OT DIIS     0.15E+00   32.1     0.00544641      -417.5000605992 -2.34E-02
    10 OT DIIS     0.15E+00   30.4     0.00240126      -417.6046404737 -1.05E-01
    11 OT DIIS     0.15E+00   31.4     0.00185098      -417.6318578844 -2.72E-02
    12 OT DIIS     0.15E+00   30.6     0.00178815      -417.6383718782 -6.51E-03
    13 OT DIIS     0.15E+00   30.5     0.00090653      -417.6458053946 -7.43E-03
    14 OT DIIS     0.15E+00   30.5     0.00082789      -417.6497236821 -3.92E-03
    15 OT DIIS     0.15E+00   30.5     0.00062652      -417.6517133632 -1.99E-03
    16 OT DIIS     0.15E+00   30.4     0.00047051      -417.6535554904 -1.84E-03
    17 OT DIIS     0.15E+00   30.0     0.00035118      -417.6546167085 -1.06E-03
    18 OT DIIS     0.15E+00   29.3     0.00028572      -417.6556592918 -1.04E-03
    19 OT DIIS     0.15E+00   30.3     0.00023692      -417.6562539121 -5.95E-04
    20 OT DIIS     0.15E+00   31.7     0.00019216      -417.6567256993 -4.72E-04

  Leaving inner SCF loop after reaching    20 steps.


  Electronic density on regular grids:        -49.0843144253       18.9156855747
  Core density on regular grids:               68.0000000000       -0.0000000000
  Hard and soft densities (Lebedev):         -104.2747383301      -85.3590585943
  Total Rho_soft + Rho1_hard - Rho1_soft      -67.9999941611
  Total charge density (r-space):               0.0000058389
  Total Rho_soft + Rho0_soft (g-space):         0.0000056284

  Overlap energy of the core charge distribution:               0.00001603177923
  Self energy of the core charge distribution:               -336.96397019199526
  Core Hamiltonian energy:                                    -70.26476442878639
  Hartree energy:                                             130.74026791954748
  Exchange-correlation energy:                                -16.88678543667041
  Hartree-Fock Exchange energy:                               -14.21053917819057

  GAPW| Exc from hard and soft atomic rho1:                   -27.92891167718199
  GAPW| local Eh = 1 center integrals:                        -82.14203873782400

  Total energy:                                              -417.65672569932195

  outer SCF iter =    1 RMS gradient =   0.19E-03 energy =       -417.6567256993

  ----------------------------------- OT ---------------------------------------
  Minimizer      : DIIS                : direct inversion
                                         in the iterative subspace
                                         using   7 DIIS vectors
                                         safer DIIS on
  Preconditioner : FULL_ALL            : diagonalization, state selective
  Precond_solver : DEFAULT
  stepsize       :    0.15000000                  energy_gap     :    0.08000000
  eps_taylor     :   0.10000E-15                  max_taylor     :             4
  ----------------------------------- OT ---------------------------------------

  Step     Update method      Time    Convergence         Total energy    Change
  ------------------------------------------------------------------------------
     1 OT DIIS     0.15E+00   69.0     0.00053030      -417.6571168745 -3.91E-04
     2 OT DIIS     0.15E+00   22.4     0.00025143      -417.6574749601 -3.58E-04
     3 OT DIIS     0.15E+00   23.0     0.00010897      -417.6575716135 -9.67E-05
     4 OT DIIS     0.15E+00   23.1     0.00001900      -417.6575788774 -7.26E-06
     5 OT DIIS     0.15E+00   22.4     0.00000835      -417.6575792611 -3.84E-07
     6 OT DIIS     0.15E+00   22.0     0.00000288      -417.6575793499 -8.88E-08
     7 OT DIIS     0.15E+00   22.1     0.00000099      -417.6575793592 -9.29E-09
     8 OT DIIS     0.15E+00   22.9     0.00000035      -417.6575793601 -8.69E-10
     9 OT DIIS     0.15E+00   22.7     0.00000015      -417.6575793602 -1.22E-10
    10 OT DIIS     0.15E+00   22.7     0.00000005      -417.6575793602 -1.22E-11

  *** SCF run converged in    10 steps ***


  Electronic density on regular grids:        -49.0840723640       18.9159276360
  Core density on regular grids:               68.0000000000       -0.0000000000
  Hard and soft densities (Lebedev):         -104.2561555385      -85.3402337388
  Total Rho_soft + Rho1_hard - Rho1_soft      -67.9999941638
  Total charge density (r-space):               0.0000058362
  Total Rho_soft + Rho0_soft (g-space):         0.0000056257

  Overlap energy of the core charge distribution:               0.00001603177923
  Self energy of the core charge distribution:               -336.96397019199526
  Core Hamiltonian energy:                                    -70.26270625940329
  Hartree energy:                                             130.73675241756078
  Exchange-correlation energy:                                -16.88706261655929
  Hartree-Fock Exchange energy:                               -14.21086748025646

  GAPW| Exc from hard and soft atomic rho1:                   -27.92913377367087
  GAPW| local Eh = 1 center integrals:                        -82.14060748766195

  Total energy:                                              -417.65757936020714

  outer SCF iter =    2 RMS gradient =   0.52E-07 energy =       -417.6575793602
  outer SCF loop converged in   2 iterations or   30 steps


 !-----------------------------------------------------------------------------!
                     Mulliken Population Analysis

 #  Atom  Element  Kind  Atomic population                           Net charge
       1     C        1          5.913047                              0.086953
       2     C        1          5.813045                              0.186955
       3     C        1          6.288064                             -0.288064
       4     C        1          6.058578                             -0.058578
       5     C        1          5.994398                              0.005602
       6     C        1          6.352649                             -0.352649
       7     N        2          7.204909                             -0.204909
       8     C        1          6.168684                             -0.168684
       9     N        2          7.181915                             -0.181915
      10     C        1          5.896394                              0.103606
      11     H        3          0.820038                              0.179962
      12     H        3          0.889132                              0.110868
      13     H        3          0.821868                              0.178132
      14     H        3          0.862578                              0.137422
      15     H        3          0.888266                              0.111734
      16     H        3          0.846435                              0.153565
 # Total charge                             68.000000                  0.000000

 !-----------------------------------------------------------------------------!

 !-----------------------------------------------------------------------------!
                           Hirshfeld Charges

  #Atom  Element  Kind  Ref Charge     Population                    Net charge
      1       C      1       6.000          6.018                        -0.018
      2       C      1       6.000          5.894                         0.106
      3       C      1       6.000          6.498                        -0.498
      4       C      1       6.000          6.445                        -0.445
      5       C      1       6.000          6.437                        -0.437
      6       C      1       6.000          6.484                        -0.484
      7       N      2       7.000          7.328                        -0.328
      8       C      1       6.000          6.330                        -0.330
      9       N      2       7.000          7.294                        -0.294
     10       C      1       6.000          6.209                        -0.209
     11       H      3       1.000          0.511                         0.489
     12       H      3       1.000          0.515                         0.485
     13       H      3       1.000          0.508                         0.492
     14       H      3       1.000          0.505                         0.495
     15       H      3       1.000          0.509                         0.491
     16       H      3       1.000          0.503                         0.497

  Total Charge                                                            0.011
 !-----------------------------------------------------------------------------!

 *******************************************************************************
 **                                                                           **
 **         ######## #######   #######   ######## #######  ########           **
 **            ##    ##     ## ##     ## ##       ##   ##     ##              **
 **            ##    ##     ## ##     ## ######   #######     ##              **
 **            ##    ##     ## ##     ## ##       ##          ##              **
 **            ##    #######   #######   ##       ##          ##              **
 **                                                                           **
 *******************************************************************************
 KERNEL|                                                                    FULL
 FUNCTIONAL| PBE:
 FUNCTIONAL| J.P.Perdew, K.Burke, M.Ernzerhof, Phys. Rev. Letter, vol. 77, n 18,
 FUNCTIONAL|  pp. 3865-3868, (1996)sx=0.750sc=1.000{spin unpolarized}           
 KERNEL|                                                          Exact Exchange
 KERNEL| Spin symmetry of excitations                                    Triplet
 TDDFPT| Number of states calculated                                          10
 TDDFPT| Number of Davidson iterations                                        20
 TDDFPT| Davidson iteration convergence                                0.100E-07
 TDDFPT| Max. number of Krylov space vectors                                  60
 TDDFPT| Molecular Orbitals:        Spin       AOs       Occ      Virt     Total
 TDDFPT|                               1       346        34       312       346

 *******************************************************************************
 **                                                                           **
 **                            ####### ####### #######                        **
 **                        #   ##      ##   ## ##                             **
 **                       ###  ######  ##   ## ##                             **
 **                        #       ##  ##   ## ##                             **
 **                            ######  ####### #######                        **
 **                 Based on the xas module from Augustin Bussy               **
 *******************************************************************************
 
 -------------------------------------------------------------------------------
 -                      TDDFPT TRIPLET ENERGIES                                 -
 -------------------------------------------------------------------------------
 
 -------------------------------------------------------------------------------
 -                            TDDFPT Initial Guess                             -
 -------------------------------------------------------------------------------
          State         Occupied      ->      Virtual          Excitation
          number         orbital              orbital          energy (eV)
 -------------------------------------------------------------------------------
             1               34                   35              5.30251
             2               33                   35              5.37693
             3               32                   35              5.91277
             4               34                   36              6.31371
             5               33                   36              6.38813
             6               31                   35              6.71320
             7               32                   36              6.92396
             8               34                   37              7.22903
             9               33                   37              7.30345
            10               30                   35              7.58338

      Number of active states:                                      10608
 -------------------------------------------------------------------------------
 
 -------------------------------------------------------------------------------
 -                      TDDFPT WAVEFUNCTION OPTIMIZATION                       -
 -------------------------------------------------------------------------------

          Step            Time         Convergence           Conv. states
 -------------------------------------------------------------------------------

    State    Exc. energy (eV)      Convergence (eV)
        1       3.4596850            -1.8428E+00
        2       3.5524401            -1.8245E+00
        3       4.1236094            -1.7892E+00
        4       4.5147289            -1.7990E+00
        5       4.6968002            -1.6913E+00
        6       4.9514658            -1.7617E+00
        7       5.0543747            -1.8696E+00
        8       5.0798537            -2.1492E+00
        9       5.8692469            -1.4342E+00
       10       6.0317715            -1.5516E+00
 
             1           172.7          7.8981E-02                      0

    State    Exc. energy (eV)      Convergence (eV)
        1       3.2233326            -2.3635E-01
        2       3.4240608            -1.2838E-01
        3       4.0158779            -1.0773E-01
        4       4.3851037            -1.2963E-01
        5       4.4551860            -2.4161E-01
        6       4.7327698            -2.1870E-01
        7       4.8920687            -1.6231E-01
        8       4.9568989            -1.2295E-01
        9       5.7744902            -9.4757E-02
       10       5.8590446            -1.7273E-01
 
             2           178.6          8.8792E-03                      0

    State    Exc. energy (eV)      Convergence (eV)
        1       3.2211951            -2.1375E-03
        2       3.4197781            -4.2828E-03
        3       4.0115807            -4.2972E-03
        4       4.3819628            -3.1410E-03
        5       4.4451558            -1.0030E-02
        6       4.7212641            -1.1506E-02
        7       4.8885708            -3.4979E-03
        8       4.9527569            -4.1420E-03
        9       5.6559253            -1.1856E-01
       10       5.7659648            -9.3080E-02
 
             3           184.3          4.3572E-03                      0

    State    Exc. energy (eV)      Convergence (eV)
        1       3.2211715            -2.3551E-05
        2       3.4196695            -1.0852E-04
        3       4.0114979            -8.2853E-05
        4       4.3819171            -4.5679E-05
        5       4.4447361            -4.1971E-04
        6       4.7209087            -3.5541E-04
        7       4.8884342            -1.3654E-04
        8       4.9525381            -2.1878E-04
[...]
 flops    31 x    32 x     6            717096960       0.0%    100.0%      0.0%
 flops     6 x    32 x    31            717096960       0.0%    100.0%      0.0%
 flops    31 x    34 x    31            954080800       0.0%    100.0%      0.0%
 flops    31 x    31 x    32           1052025920       0.0%    100.0%      0.0%
 flops    34 x    34 x    31           1433440000       0.0%    100.0%      0.0%
 flops    31 x    32 x    31           6176846720       0.0%    100.0%      0.0%
 flops inhomo. stacks                           0       0.0%      0.0%      0.0%
 flops total                        12.826624E+09       0.0%    100.0%      0.0%
 flops max/rank                      1.533052E+09       0.0%    100.0%      0.0%
 matmuls inhomo. stacks                         0       0.0%      0.0%      0.0%
 matmuls total                             686496       0.0%    100.0%      0.0%
 number of processed stacks                577652       0.0%    100.0%      0.0%
 average stack size                                     0.0       1.2       0.0
 marketing flops                    14.461262E+09
 -------------------------------------------------------------------------------
 # multiplications                           1872
 max memory usage/rank               1.281233E+09
 # max total images/rank                        2
 # max 3D layers                                1
 # MPI messages exchanged                 6948864
 MPI messages size (bytes):
  total size                        17.148424E+09
  min size                           0.000000E+00
  max size                          16.864000E+03
  average size                       2.467802E+03
 MPI breakdown and total messages size (bytes):
             size <=      128             4450190                  7076288
       128 < size <=     8192             1320759               3310625264
      8192 < size <=    32768             1177915              13830726080
     32768 < size <=   131072                   0                        0
    131072 < size <=  4194304                   0                        0
   4194304 < size <= 16777216                   0                        0
  16777216 < size                               0                        0
 -------------------------------------------------------------------------------

 *** WARNING in dbcsr_mm.F:291 :: Using a non-square number of MPI ranks ***
 *** might lead to poor performance. Used ranks: 128 Suggested: 121 256  ***

 -------------------------------------------------------------------------------
 -                                                                             -
 -                      DBCSR MESSAGE PASSING PERFORMANCE                      -
 -                                                                             -
 -------------------------------------------------------------------------------
 ROUTINE             CALLS      AVE VOLUME [Bytes]
 MP_Bcast               75                     12.
 MP_Allreduce         8244                      8.
 MP_Alltoall         28855                  39481.
 MP_ISend           116866                   2658.
 MP_IRecv           116780                   2389.
 -------------------------------------------------------------------------------

 -------------------------------------------------------------------------------
 -                                                                             -
 -                                DBM STATISTICS                               -
 -                                                                             -
 -------------------------------------------------------------------------------
    M  x    N  x    K                                          COUNT     PERCENT
 -------------------------------------------------------------------------------

 -------------------------------------------------------------------------------
 -                                                                             -
 -                                GRID STATISTICS                              -
 -                                                                             -
 -------------------------------------------------------------------------------
 LP    KERNEL             BACKEND                              COUNT     PERCENT
 1     collocate ortho    CPU                                 498067      13.21%
 1     integrate ortho    CPU                                 489430      12.98%
 2     collocate ortho    CPU                                 406723      10.79%
 2     integrate ortho    CPU                                 399670      10.60%
 0     collocate ortho    CPU                                 342367       9.08%
 0     integrate ortho    CPU                                 336430       8.92%
 3     collocate ortho    CPU                                 276281       7.33%
 3     integrate ortho    CPU                                 271490       7.20%
 2     collocate general  CPU                                 208896       5.54%
 2     integrate general  CPU                                 204800       5.43%
 4     collocate ortho    CPU                                 120235       3.19%
 4     integrate ortho    CPU                                 118150       3.13%
 5     collocate ortho    CPU                                  37368       0.99%
 5     integrate ortho    CPU                                  36720       0.97%
 6     collocate ortho    CPU                                   9515       0.25%
 6     integrate ortho    CPU                                   9350       0.25%
 0     collocate general  CPU                                   2048       0.05%
 0     integrate general  CPU                                   2048       0.05%
 -------------------------------------------------------------------------------

 MEMORY| Estimated peak process memory [MiB]                                1222

 -------------------------------------------------------------------------------
 ----                             MULTIGRID INFO                            ----
 -------------------------------------------------------------------------------
 count for grid        1:         946972          cutoff [a.u.]          600.00
 count for grid        2:         182145          cutoff [a.u.]          200.00
 count for grid        3:         200281          cutoff [a.u.]           66.67
 count for grid        4:          62281          cutoff [a.u.]           22.22
 count for grid        5:           3200          cutoff [a.u.]            7.41
 total gridlevel count  :        1394879

 -------------------------------------------------------------------------------
 -                                                                             -
 -                         MESSAGE PASSING PERFORMANCE                         -
 -                                                                             -
 -------------------------------------------------------------------------------

 ROUTINE             CALLS      AVE VOLUME [Bytes]
 MP_Group                6
 MP_Bcast             7675                 666790.
 MP_Allreduce        16729                  18648.
 MP_Sync              2325
 MP_Alltoall          4895                2627525.
 MP_SendRecv         65913                  11184.
 MP_ISendRecv       143764                  13464.
 MP_Wait            181985
 MP_comm_split          81
 MP_ISend            42132                 231711.
 MP_IRecv            44732                 218270.
 -------------------------------------------------------------------------------


 -------------------------------------------------------------------------------
 -                                                                             -
 -                           R E F E R E N C E S                               -
 -                                                                             -
 -------------------------------------------------------------------------------
 
 CP2K version 2023.2 (Development Version), the CP2K developers group (2023).
 CP2K is freely available from https://www.cp2k.org/ .

 Kuehne,Thomas D.; Iannuzzi,Marcella; Del Ben,Mauro;
 Rybkin,Vladimir V.; Seewald,Patrick; Stein,Frederick; Laino,Teodoro;
 Khaliullin,Rustam Z.; Schuett,Ole; Schiffmann,Florian; Golze,Dorothea;
 Wilhelm,Jan; Chulkov,Sergey; Bani-Hashemian,Mohammad Hossein;
 Weber,Valery; Borstnik,Urban; Taillefumier,Mathieu;
 Jakobovits,Alice Shoshana; Lazzaro,Alfio; Pabst,Hans; Mueller,Tiziano;
 Schade,Robert; Guidon,Manuel; Andermatt,Samuel; Holmberg,Nico;
 Schenter,Gregory K.; Hehn,Anna; Bussy,Augustin; Belleflamme,Fabian;
 Tabacchi,Gloria; Gloess,Andreas; Lass,Michael; Bethune,Iain;
 Mundy,Christopher J.; Plessl,Christian; Watkins,Matt;
 VandeVondele,Joost; Krack,Matthias; Hutter,Juerg. 
 The Journal of Chemical Physics, 152 (19), (2020). 
 CP2K: An electronic structure and molecular dynamics software package -
 Quickstep: Efficient and accurate electronic structure calculations.
 https://doi.org/10.1063/5.0007045

 Schuett, Ole; Messmer, Peter; Hutter, Juerg; VandeVondele, Joost. 
 Electronic Structure Calculations on Graphics Processing Units, John
 Wiley & Sons, Ltd, 173-190 (2016). 
 GPU-Accelerated Sparse Matrix-Matrix Multiplication for
 Linear Scaling Density Functional Theory.
 https://doi.org/10.1002/9781118670712.ch8

 Heinecke, A; Henry, G; Hutchinson, M; Pabst, H. 
 Proceedings of Intl. Supercomputing Conference, 981-991 (2016). 
 LIBXSMM: Accelerating Small Matrix Multiplications
 by Runtime Code Generation.
 https://doi.org/10.1109/SC.2016.83

 Borstnik, U; VandeVondele, J; Weber, V; Hutter, J. 
 PARALLEL COMPUTING, 40 (5-6), 47-58 (2014). 
 Sparse matrix multiplication: The distributed block-compressed sparse
 row library.
 https://doi.org/10.1016/j.parco.2014.03.012

 Hutter, J; Iannuzzi, M; Schiffmann, F; VandeVondele, J. 
 WIREs Comput Mol Sci., 4 (1), 15-25 (2014). 
 CP2K: atomistic simulations of condensed matter systems.
 https://doi.org/10.1002/wcms.1159

 Guidon, M; Hutter, J; VandeVondele, J. 
 JOURNAL OF CHEMICAL THEORY AND COMPUTATION, 5 (11), 3010-3021 (2009). 
 Robust Periodic Hartree-Fock Exchange for Large-Scale Simulations Using
 Gaussian Basis Sets.
 https://doi.org/10.1021/ct900494g

 Guidon, M; Schiffmann, F; Hutter, J; VandeVondele, J. 
 JOURNAL OF CHEMICAL PHYSICS, 128 (21), 214104 (2008). 
 Ab initio molecular dynamics using hybrid density functionals.
 https://doi.org/10.1063/1.2931945

 Frigo, M; Johnson, SG. 
 PROCEEDINGS OF THE IEEE, 93 (2), 216-231 (2005). 
 The design and implementation of FFTW3.
 https://doi.org/10.1109/JPROC.2004.840301

 Iannuzzi, M; Chassaing, T; Wallman, T; Hutter, J. 
 CHIMIA, 59 (7-8), 499-503 (2005). 
 Ground and excited state density functional calculations with the
 Gaussian and augmented-plane-wave method.
 https://doi.org/10.2533/000942905777676164

 VandeVondele, J; Hutter, J. 
 JOURNAL OF CHEMICAL PHYSICS, 118 (10), 4365-4369 (2003). 
 An efficient orbital transformation method for electronic structure
 calculations.
 https://doi.org/10.1063/1.1543154

 Martin,Richard L.. 
 The Journal of Chemical Physics, 118 (11), 4775-4777 (2003). 
 Natural transition orbitals.
 https://doi.org/10.1063/1.1558471

 Lippert, G; Hutter, J; Parrinello, M. 
 THEORETICAL CHEMISTRY ACCOUNTS, 103 (2), 124-140 (1999). 
 The Gaussian and augmented-plane-wave density functional method for ab
 initio molecular dynamics simulations.
 https://doi.org/10.1007/s002140050523

 Krack, M; Parrinello, M. 
 PHYSICAL CHEMISTRY CHEMICAL PHYSICS, 2 (10), 2105-2112 (2000). 
 All-electron ab-initio molecular dynamics.
 https://doi.org/10.1039/b001167n

 Martyna, GJ; Tuckerman, ME. 
 JOURNAL OF CHEMICAL PHYSICS, 110 (6), 2810-2821 (1999). 
 A reciprocal space based method for treating long range interactions in
 ab initio and force-field-based calculations in clusters.
 https://doi.org/10.1063/1.477923

 Perdew, JP; Burke, K; Ernzerhof, M. 
 PHYSICAL REVIEW LETTERS, 77 (18), 3865-3868 (1996). 
 Generalized gradient approximation made simple.
 https://doi.org/10.1103/PhysRevLett.77.3865


 -------------------------------------------------------------------------------
 -                                                                             -
 -                                T I M I N G                                  -
 -                                                                             -
 -------------------------------------------------------------------------------
 SUBROUTINE                       CALLS  ASD         SELF TIME        TOTAL TIME
                                MAXIMUM       AVERAGE  MAXIMUM  AVERAGE  MAXIMUM
 CP2K                                 1  1.0    0.070    0.197 3542.439 3542.446
 qs_energies                          1  2.0    0.000    0.011 3540.522 3540.552
 qs_energies_properties               1  3.0    0.000    0.010 2654.815 2654.840
 tddfpt                               1  4.0    0.001    0.018 2654.815 2654.840
 tddfpt_soc_energies                  1  5.0    0.001    0.021 2645.873 2645.911
 tddfpt_energies                      2  6.0    0.000    0.001 2593.435 2593.452
 tddfpt_davidson_solver               4  7.0    0.006    0.025 2479.752 2479.777
 tddfpt_compute_Aop_evects           14  8.0    0.000    0.000 1999.756 1999.866
 dbcsr_multiply_generic            1872 10.9    0.165    0.290 1309.234 1323.568
 cp_dbcsr_sm_fm_multiply            885  9.5    0.013    0.024 1212.717 1218.819
 fhxc_kernel                         14  9.0    0.004    0.015 1138.256 1138.331
 scf_env_do_scf                       1  3.0    0.000    0.027  876.198  876.229
 scf_env_do_scf_inner_loop           30  4.0    0.002    0.012  828.891  828.913
 multiply_cannon                   1872 11.9    4.957    5.538  744.232  772.285
 multiply_cannon_loop              1872 12.9    0.990    1.230  663.355  688.554
 tddfpt_apply_hfx                    14  9.0    0.003    0.008  655.004  655.081
 qs_scf_new_mos                      30  5.0    0.000    0.000  643.479  644.419
 qs_scf_loop_do_ot                   30  6.0    0.000    0.000  643.479  644.419
 ot_scf_mini                         30  7.0    0.000    0.000  617.108  618.242
 dbcsr_complete_redistribute       2866 11.5    0.105    0.267  600.684  609.774
 multiply_cannon_multrec          29952 13.9  507.372  566.675  507.379  566.680
 cp_dbcsr_sm_fm_multiply_core       885 10.5    0.002    0.012  532.998  545.125
 pw_transfer                       3805 12.1    0.117    0.187  458.535  460.870
 fft_wrap_pw1pw2                   3503 13.2    0.011    0.022  458.017  460.391
 fft3d_ps                          3503 15.2    9.859   11.064  455.002  457.632
 copy_dbcsr_to_fm                   958 10.4    0.009    0.048  447.006  457.525
 copy_fm_to_dbcsr                  1904 10.6    0.005    0.016  382.239  389.130
 mp_waitall_1                    359593 14.3  310.636  383.150  310.636  383.150
 ot_mini                             30  8.0    0.003    0.014  370.483  371.105
 tddfpt_orthonormalize_psi1_psi      16  7.9    0.007    0.056  362.043  365.030
 mp_sum_l                          7814 11.3  335.886  345.804  335.886  345.804
 qs_rho_update_rho_low              173  9.1    0.016    0.070  313.286  316.437
 qs_ot_get_derivative                30  9.0    0.000    0.011  304.744  305.851
 mp_alltoall_i22                   3861 12.5  281.118  292.206  281.118  292.206
 mp_alltoall_d11v                 11926 12.7  268.444  291.368  268.444  291.368
 cp_dbcsr_plus_fm_fm_t_native       141 10.0    0.002    0.013  278.102  280.292
 calculate_rho_elec                 173 10.1    0.041    0.070  274.673  277.921
 mp_alltoall_z22v                  3503 17.2  271.654  277.101  271.654  277.101
 fft_wrap_pw1pw2_600               2130 14.3    1.410    1.627  246.821  248.943
 integrate_v_rspace                 170  9.8    0.004    0.028  235.886  238.316
 dbcsr_desymmetrize_deep            958 11.4    0.015    0.054  228.462  238.256
 density_rs2pw                      173 11.1    0.006    0.017  235.177  237.568
 mp_sum_dv                         6777 11.2  204.239  226.206  204.239  226.206
 potential_pw2rs                    170 10.8    0.008    0.033  222.389  223.077
 tddfpt_apply_energy_diff            14  9.0    0.001    0.001  206.496  206.605
 integrate_four_center              310 10.8    6.979   11.519  194.941  196.797
 multiply_cannon_metrocomm3       29952 13.9    0.051    0.085  126.499  190.438
 qs_ot_get_p                         32  7.9    0.000    0.000  183.892  184.683
 make_m2s                          3744 11.9    0.035    0.065  174.161  184.246
 make_images                       3744 12.9   10.399   11.173  170.852  179.706
 tddft_hfx_matrix                   280 10.0    0.009    0.031  169.506  171.318
 mp_alltoall_i11v                  9667 12.5  163.426  169.594  163.426  169.594
 qs_ot_get_derivative_diag           19 10.0    0.001    0.061  159.909  160.626
 cp_fm_trace_a1b1t1_aa             3880  9.0    8.850   12.634  156.182  158.395
 make_images_sizes                 3744 13.9    0.005    0.014  145.026  151.313
 mp_alltoall_i44                   3744 14.9  145.021  151.310  145.021  151.310
 xc_pw_derive                      1239 11.7    0.006    0.018  142.911  144.428
 qs_ks_update_qs_env                 32  5.0    0.000    0.000  142.344  143.051
 rebuild_ks_matrix                   30  6.0    0.000    0.000  142.269  143.022
 qs_ks_build_kohn_sham_matrix        30  7.0    0.021    0.061  142.269  143.022
 tddfpt_apply_xc_analytic           140 10.0    0.082    0.107  140.646  140.980
 tddfpt_compute_residual_vects       10  8.0    0.001    0.010  134.210  134.406
 x_to_yz                           1172 15.9    3.743    4.235  128.594  129.779
 mp_alltoall_z11v                  1029 17.0  124.884  126.858  124.884  126.858
 yz_to_x                            959 16.8    0.252    0.318  108.241  110.783
 transfer_rs2pw                     968 12.0    0.006    0.027  103.671  106.199
 transfer_pw2rs                     951 11.7    0.004    0.025  104.509  105.443
 mp_cart_sub                       1926 12.4   97.400  102.003   97.400  102.003
 mp_sync                           2325 13.8   92.455  100.571   92.455  100.571
 arnoldi_extremal                    32  8.9    0.000    0.011   98.489   99.585
 arnoldi_normal_ev                   32  9.9    0.001    0.016   98.488   99.585
 mp_waitany                       29426 13.7   95.221   99.289   95.221   99.289
 build_subspace                      32 10.9    0.013    0.058   91.650   92.575
 xz_to_yz                           692 16.1    1.777    2.060   84.471   85.873
 yz_to_xz                           680 15.8    1.755    1.993   82.590   83.894
 xc_pw_divergence                   170 11.6    0.002    0.003   81.675   83.180
 mp_allgather_i34                  1872 12.9   74.128   81.323   74.128   81.323
 hybrid_alltoall_any               4702 14.4    0.045    0.292   66.616   76.521
 tddfpt_print_nto_analysis            2  7.0    0.002    0.013   75.109   75.488
 integrate_four_center_getP         310 11.8    0.076    0.119   70.468   72.075
 xc_calc_2nd_deriv_analytical       700 11.2    2.885    3.582   70.581   71.161
 -------------------------------------------------------------------------------

 The number of warnings for this run is : 3
 
 -------------------------------------------------------------------------------
  **** **** ******  **  PROGRAM ENDED AT                 2023-12-06 15:08:34.979
 ***** ** ***  *** **   PROGRAM RAN ON                               nesh-srp146
 **    ****   ******    PROGRAM RAN BY                                  suphc355
 ***** **    ** ** **   PROGRAM PROCESS ID                               1993973
  **** **  *******  **  PROGRAM STOPPED IN /gxfs_work/cau/suphc355/benchmark_pbe
                                           0/pbe0_bm_ae/quinazolin
