 DBCSR| CPU Multiplication driver                                           XSMM (U)
 DBCSR| Multrec recursion limit                                              512 (U)
 DBCSR| Multiplication stack size                                           1000 (D)
 DBCSR| Maximum elements for images                                    UNLIMITED (U)
 DBCSR| Multiplicative factor virtual images                                   1 (U)
 DBCSR| Use multiplication densification                                       T (D)
 DBCSR| Multiplication size stacks                                             3 (U)
 DBCSR| Use memory pool for CPU allocation                                     F (U)
 DBCSR| Number of 3D layers                                               SINGLE (U)
 DBCSR| Use MPI memory allocation                                              F (U)
 DBCSR| Use RMA algorithm                                                      F (U)
 DBCSR| Use Communication thread                                               T (U)
 DBCSR| Communication thread load                                             87 (D)
 DBCSR| MPI: My process id                                                     0
 DBCSR| MPI: Number of processes                                             128
 DBCSR| OMP: Current number of threads                                         1
 DBCSR| OMP: Max number of threads                                             1
 DBCSR| Split modifier for TAS multiplication algorithm                  1.0E+00 (U)


  **** **** ******  **  PROGRAM STARTED AT               2024-02-01 09:10:27.003
 ***** ** ***  *** **   PROGRAM STARTED ON                           nesh-srp133
 **    ****   ******    PROGRAM STARTED BY                              suphc355
 ***** **    ** ** **   PROGRAM PROCESS ID                                330328
  **** **  *******  **  PROGRAM STARTED IN /gxfs_work/cau/suphc355/homologes/HX/
                                           AE/Cl

 CP2K| version string:                 CP2K version 2024.1 (Development Version)
 CP2K| source code revision number:                                  git:b6f9133
 CP2K| cp2kflags: omp libint fftw3 libxc libgrpp parallel mpi_f08 scalapack cosm
 CP2K|            a xsmm spglib mkl
 CP2K| is freely available from                            https://www.cp2k.org/
 CP2K| Program compiled at                          Fr 26. Jan 09:14:30 CET 2024
 CP2K| Program compiled on                                           nesh-login3
 CP2K| Program compiled for                                                local
 CP2K| Data directory path            /gxfs_home/cau/suphc355/software/cp2k/data
 CP2K| Input file name                                                    AE.inp
 
 GLOBAL| Force Environment number                                              1
 GLOBAL| Basis set file name                                 ../../../basis_zora
 GLOBAL| Potential file name                                           POTENTIAL
 GLOBAL| MM Potential file name                                     MM_POTENTIAL
 GLOBAL| Coordinate file name                                            opt.xyz
 GLOBAL| Method name                                                        CP2K
 GLOBAL| Project name                                                        HCl
 GLOBAL| Run type                                                         ENERGY
 GLOBAL| FFT library                                                       FFTW3
 GLOBAL| Diagonalization library                                       ScaLAPACK
 GLOBAL| DGEMM library                                                      BLAS
 GLOBAL| Orthonormality check for eigenvectors                          DISABLED
 GLOBAL| Matrix multiplication library                                     COSMA
 GLOBAL| All-to-all communication in single precision                          F
 GLOBAL| FFTs using library dependent lengths                                  F
 GLOBAL| Grid backend                                                       AUTO
 GLOBAL| Global print level                                               MEDIUM
 GLOBAL| MPI I/O enabled                                                       T
 GLOBAL| Total number of message passing processes                           128
 GLOBAL| Number of threads for this process                                    1
 GLOBAL| This output is from process                                           0
 GLOBAL| Stack size for threads created by OpenMP (OMP_STACKSIZE)        default
 GLOBAL| CPU model name                              Intel(R) Xeon(R) Gold 6426Y
 GLOBAL| CPUID                                                              1003

 MEMORY| system memory details [Kb]
 MEMORY|                        rank 0           min           max       average
 MEMORY| MemTotal            263786136     263786136     263786136     263786136
 MEMORY| MemFree             242950436     242894312     243011608     242949993
 MEMORY| Buffers               1040912       1040336       1041356       1040954
 MEMORY| Cached                 863500        846132        900732        877371
 MEMORY| Slab                   657240        640824        657240        645755
 MEMORY| SReclaimable           196452        191668        196452        193674
 MEMORY| MemLikelyFree       245051300     245028068     245090260     245061992


 *** Fundamental physical constants (SI units) ***

 *** Literature: B. J. Mohr and B. N. Taylor,
 ***             CODATA recommended values of the fundamental physical
 ***             constants: 2006, Web Version 5.1
 ***             http://physics.nist.gov/constants

 Speed of light in vacuum [m/s]                             2.99792458000000E+08
 Magnetic constant or permeability of vacuum [N/A**2]       1.25663706143592E-06
 Electric constant or permittivity of vacuum [F/m]          8.85418781762039E-12
 Planck constant (h) [J*s]                                  6.62606896000000E-34
 Planck constant (h-bar) [J*s]                              1.05457162825177E-34
 Elementary charge [C]                                      1.60217648700000E-19
 Electron mass [kg]                                         9.10938215000000E-31
 Electron g factor [ ]                                     -2.00231930436220E+00
 Proton mass [kg]                                           1.67262163700000E-27
 Fine-structure constant                                    7.29735253760000E-03
 Rydberg constant [1/m]                                     1.09737315685270E+07
 Avogadro constant [1/mol]                                  6.02214179000000E+23
 Boltzmann constant [J/K]                                   1.38065040000000E-23
 Atomic mass unit [kg]                                      1.66053878200000E-27
 Bohr radius [m]                                            5.29177208590000E-11

 *** Conversion factors ***

 [u] -> [a.u.]                                              1.82288848426455E+03
 [Angstrom] -> [Bohr] = [a.u.]                              1.88972613288564E+00
 [a.u.] = [Bohr] -> [Angstrom]                              5.29177208590000E-01
 [a.u.] -> [s]                                              2.41888432650478E-17
 [a.u.] -> [fs]                                             2.41888432650478E-02
 [a.u.] -> [J]                                              4.35974393937059E-18
 [a.u.] -> [N]                                              8.23872205491840E-08
 [a.u.] -> [K]                                              3.15774647902944E+05
 [a.u.] -> [kJ/mol]                                         2.62549961709828E+03
 [a.u.] -> [kcal/mol]                                       6.27509468713739E+02
 [a.u.] -> [Pa]                                             2.94210107994716E+13
 [a.u.] -> [bar]                                            2.94210107994716E+08
 [a.u.] -> [atm]                                            2.90362800883016E+08
 [a.u.] -> [eV]                                             2.72113838565563E+01
 [a.u.] -> [Hz]                                             6.57968392072181E+15
 [a.u.] -> [1/cm] (wave numbers)                            2.19474631370540E+05
 [a.u./Bohr**2] -> [1/cm]                                   5.14048714338585E+03
 

 CELL_TOP| Volume [angstrom^3]:                                      8000.000000
 CELL_TOP| Vector a [angstrom    20.000     0.000     0.000   |a| =    20.000000
 CELL_TOP| Vector b [angstrom     0.000    20.000     0.000   |b| =    20.000000
 CELL_TOP| Vector c [angstrom     0.000     0.000    20.000   |c| =    20.000000
 CELL_TOP| Angle (b,c), alpha [degree]:                                90.000000
 CELL_TOP| Angle (a,c), beta  [degree]:                                90.000000
 CELL_TOP| Angle (a,b), gamma [degree]:                                90.000000
 CELL_TOP| Numerically orthorhombic:                                         YES
 CELL_TOP| Periodicity                                                      NONE
 
 GENERATE|  Preliminary Number of Bonds generated:                             0
 GENERATE|  Achieved consistency in connectivity generation.

 CELL| Volume [angstrom^3]:                                          8000.000000
 CELL| Vector a [angstrom]:      20.000     0.000     0.000   |a| =    20.000000
 CELL| Vector b [angstrom]:       0.000    20.000     0.000   |b| =    20.000000
 CELL| Vector c [angstrom]:       0.000     0.000    20.000   |c| =    20.000000
 CELL| Angle (b,c), alpha [degree]:                                    90.000000
 CELL| Angle (a,c), beta  [degree]:                                    90.000000
 CELL| Angle (a,b), gamma [degree]:                                    90.000000
 CELL| Numerically orthorhombic:                                             YES
 CELL| Periodicity                                                          NONE

 CELL_REF| Volume [angstrom^3]:                                      8000.000000
 CELL_REF| Vector a [angstrom    20.000     0.000     0.000   |a| =    20.000000
 CELL_REF| Vector b [angstrom     0.000    20.000     0.000   |b| =    20.000000
 CELL_REF| Vector c [angstrom     0.000     0.000    20.000   |c| =    20.000000
 CELL_REF| Angle (b,c), alpha [degree]:                                90.000000
 CELL_REF| Angle (a,c), beta  [degree]:                                90.000000
 CELL_REF| Angle (a,b), gamma [degree]:                                90.000000
 CELL_REF| Numerically orthorhombic:                                         YES
 CELL_REF| Periodicity                                                      NONE

 *******************************************************************************
 *******************************************************************************
 **                                                                           **
 **     #####                         ##              ##                      **
 **    ##   ##            ##          ##              ##                      **
 **   ##     ##                       ##            ######                    **
 **   ##     ##  ##   ##  ##   #####  ##  ##   ####   ##    #####    #####    **
 **   ##     ##  ##   ##  ##  ##      ## ##   ##      ##   ##   ##  ##   ##   **
 **   ##  ## ##  ##   ##  ##  ##      ####     ###    ##   ######   ######    **
 **    ##  ###   ##   ##  ##  ##      ## ##      ##   ##   ##       ##        **
 **     #######   #####   ##   #####  ##  ##  ####    ##    #####   ##        **
 **           ##                                                    ##        **
 **                                                                           **
 **                                                ... make the atoms dance   **
 **                                                                           **
 **            Copyright (C) by CP2K developers group (2000-2024)             **
 **                      J. Chem. Phys. 152, 194103 (2020)                    **
 **                                                                           **
 *******************************************************************************

 DFT| Spin restricted Kohn-Sham (RKS) calculation                            RKS
 DFT| Multiplicity                                                             1
 DFT| Number of spin states                                                    1
 DFT| Charge                                                                   0
 DFT| Self-interaction correction (SIC)                                       NO
 DFT| Cutoffs: density                                              1.000000E-10
 DFT|          gradient                                             1.000000E-10
 DFT|          tau                                                  1.000000E-10
 DFT|          cutoff_smoothing_range                               0.000000E+00
 DFT| XC density smoothing                                                  NONE
 DFT| XC derivatives                                                          PW

 FUNCTIONAL| PBE:
 FUNCTIONAL| J.P.Perdew, K.Burke, M.Ernzerhof, Phys. Rev. Letter, vol. 77, n 18,
 FUNCTIONAL|  pp. 3865-3868, (1996)sx=0.750sc=1.000{spin unpolarized}           


 QS| Method:                                                                GAPW
 QS| Density plane wave grid type                        NON-SPHERICAL FULLSPACE
 QS| Number of grid levels:                                                    5
 QS| Density cutoff [a.u.]:                                                600.0
 QS| Multi grid cutoff [a.u.]: 1) grid level                               600.0
 QS|                           2) grid level                               200.0
 QS|                           3) grid level                                66.7
 QS|                           4) grid level                                22.2
 QS|                           5) grid level                                 7.4
 QS| Grid level progression factor:                                          3.0
 QS| Relative density cutoff [a.u.]:                                        40.0
 QS| Interaction thresholds: eps_pgf_orb:                                1.0E-30
 QS|                         eps_filter_matrix:                          0.0E+00
 QS|                         eps_core_charge:                            1.0E-17
 QS|                         eps_rho_gspace:                             1.0E-15
 QS|                         eps_rho_rspace:                             1.0E-15
 QS|                         eps_gvg_rspace:                             3.2E-08
 QS|                         eps_ppl:                                    1.0E-02
 QS|                         eps_ppnl:                                   3.2E-10
 QS| GAPW|      One center basis from orbital basis primitives
 QS| GAPW|                   eps_fit:                                    1.0E-04
 QS| GAPW|                   eps_iso:                                    1.0E-12
 QS| GAPW|                   eps_svd:                                    1.0E-08
 QS| GAPW|                   eps_cpc:                                    1.0E-15
 QS| GAPW|   atom-r-grid: quadrature:                                     GC_LOG
 QS| GAPW|      atom-s-grid:  max l :                                          6
 QS| GAPW|      max_l_rho0 :                                                   2


 ATOMIC KIND INFORMATION

  1. Atomic kind: Cl                                    Number of atoms:       1

     Orbital Basis Set                                                  TZP-ZORA

       Number of orbital shell sets:                                          16
       Number of orbital shells:                                              16
       Number of primitive Cartesian functions:                               26
       Number of Cartesian basis functions:                                   45
       Number of spherical basis functions:                                   40
       Norm type:                                                              2

       Normalised Cartesian orbitals:

                        Set   Shell   Orbital            Exponent    Coefficient

                          1       1    1s           181678.826982      11.697497
                                                     27435.277097      17.976616
                                                      6322.379979      28.625118
                                                      1795.443039      44.820110
                                                       575.079003      64.955790

                          2       1    1s              201.178129      38.071121

                          3       1    1s               74.610375      18.092955

                          4       1    1s               28.632655       8.821782

                          5       1    1s                8.235568       3.464817

                          6       1    1s                4.089689      -1.332006
                                                         1.845973      -0.424955

                          7       1    1s                0.548890       0.454490

                          8       1    1s                0.197889       0.211459

                          9       1    1px             859.876766      12.286925
                                                       218.960509      15.197910
                                                        72.368533      18.135023
                                                        26.917101      17.348483
                                                        10.774975      11.449360
                                                         4.523240       4.449371
                          9       1    1py             859.876766      12.286925
                                                       218.960509      15.197910
                                                        72.368533      18.135023
                                                        26.917101      17.348483
                                                        10.774975      11.449360
                                                         4.523240       4.449371
                          9       1    1pz             859.876766      12.286925
                                                       218.960509      15.197910
                                                        72.368533      18.135023
                                                        26.917101      17.348483
                                                        10.774975      11.449360
                                                         4.523240       4.449371

                         10       1    1px               1.987167       3.363048
                         10       1    1py               1.987167       3.363048
                         10       1    1pz               1.987167       3.363048

                         11       1    1px               0.906498       1.260808
                         11       1    1py               0.906498       1.260808
                         11       1    1pz               0.906498       1.260808

                         12       1    1px               0.338624       0.368203
                         12       1    1py               0.338624       0.368203
                         12       1    1pz               0.338624       0.368203

                         13       1    1px               0.119250       0.099888
                         13       1    1py               0.119250       0.099888
                         13       1    1pz               0.119250       0.099888

                         14       1    1dx2              0.975154       1.575026
                         14       1    1dxy              0.975154       2.728025
                         14       1    1dxz              0.975154       2.728025
                         14       1    1dy2              0.975154       1.575026
                         14       1    1dyz              0.975154       2.728025
                         14       1    1dz2              0.975154       1.575026

                         15       1    1dx2              0.325739       0.231171
                         15       1    1dxy              0.325739       0.400399
                         15       1    1dxz              0.325739       0.400399
                         15       1    1dy2              0.325739       0.231171
                         15       1    1dyz              0.325739       0.400399
                         15       1    1dz2              0.325739       0.231171

                         16       1    1fx3              0.729970       0.725088
                         16       1    1fx2y             0.729970       1.621346
                         16       1    1fx2z             0.729970       1.621346
                         16       1    1fxy2             0.729970       1.621346
                         16       1    1fxyz             0.729970       2.808254
                         16       1    1fxz2             0.729970       1.621346
                         16       1    1fy3              0.729970       0.725088
                         16       1    1fy2z             0.729970       1.621346
                         16       1    1fyz2             0.729970       1.621346
                         16       1    1fz3              0.729970       0.725088

       Atomic covalent radius [Angstrom]:                                  0.990

       Atomic van der Waals radius [Angstrom]:                             1.750

     The atoms of this atomic kind are PAW atoms (GAPW):
       Hard Gaussian function radius:                                      1.512
       Rho0 radius:                                                        1.512
       Maximum GTO radius used for PAW projector construction:            24.566

     GAPW Soft Basis Set                                           TZP-ZORA_soft

       Number of orbital shell sets:                                          16
       Number of orbital shells:                                              16
       Number of primitive Cartesian functions:                               10
       Number of Cartesian basis functions:                                   45
       Number of spherical basis functions:                                   40
       Norm type:                                                              2

       Normalised Cartesian orbitals:

                        Set   Shell   Orbital            Exponent    Coefficient

                          1       1    1s         

                          2       1    1s         

                          3       1    1s         

                          4       1    1s         

                          5       1    1s         

                          6       1    1s                1.845973      -0.424955

                          7       1    1s                0.548890       0.454490

                          8       1    1s                0.197889       0.211459

                          9       1    1px        
                          9       1    1py        
                          9       1    1pz        

                         10       1    1px               1.987167       3.363048
                         10       1    1py               1.987167       3.363048
                         10       1    1pz               1.987167       3.363048

                         11       1    1px               0.906498       1.260808
                         11       1    1py               0.906498       1.260808
                         11       1    1pz               0.906498       1.260808

                         12       1    1px               0.338624       0.368203
                         12       1    1py               0.338624       0.368203
                         12       1    1pz               0.338624       0.368203

                         13       1    1px               0.119250       0.099888
                         13       1    1py               0.119250       0.099888
                         13       1    1pz               0.119250       0.099888

                         14       1    1dx2              0.975154       1.575026
                         14       1    1dxy              0.975154       2.728025
                         14       1    1dxz              0.975154       2.728025
                         14       1    1dy2              0.975154       1.575026
                         14       1    1dyz              0.975154       2.728025
                         14       1    1dz2              0.975154       1.575026

                         15       1    1dx2              0.325739       0.231171
                         15       1    1dxy              0.325739       0.400399
                         15       1    1dxz              0.325739       0.400399
                         15       1    1dy2              0.325739       0.231171
                         15       1    1dyz              0.325739       0.400399
                         15       1    1dz2              0.325739       0.231171

                         16       1    1fx3              0.729970       0.725088
                         16       1    1fx2y             0.729970       1.621346
                         16       1    1fx2z             0.729970       1.621346
                         16       1    1fxy2             0.729970       1.621346
                         16       1    1fxyz             0.729970       2.808254
                         16       1    1fxz2             0.729970       1.621346
                         16       1    1fy3              0.729970       0.725088
                         16       1    1fy2z             0.729970       1.621346
                         16       1    1fyz2             0.729970       1.621346
                         16       1    1fz3              0.729970       0.725088

     AE Potential information for                                            ALL

       Description:                                       All-electron potential
                                          Krack, Parrinello, PCCP 2, 2105 (2000)

       Gaussian exponent of the core charge distribution:               2.974420
       Electronic configuration (s p d ...):                           6  11   0

  2. Atomic kind: H                                     Number of atoms:       1

     Orbital Basis Set                                                  TZP-ZORA

       Number of orbital shell sets:                                           6
       Number of orbital shells:                                               6
       Number of primitive Cartesian functions:                                8
       Number of Cartesian basis functions:                                   15
       Number of spherical basis functions:                                   14
       Norm type:                                                              2

       Normalised Cartesian orbitals:

                        Set   Shell   Orbital            Exponent    Coefficient

                          1       1    1s               34.877584       0.254499
                                                         5.233973       0.449285
                                                         1.185033       0.695456

                          2       1    1s                0.328339       0.309138

                          3       1    1s                0.110319       0.136426

                          4       1    1px               0.718844       0.943482
                          4       1    1py               0.718844       0.943482
                          4       1    1pz               0.718844       0.943482

                          5       1    1px               0.350000       0.383729
                          5       1    1py               0.350000       0.383729
                          5       1    1pz               0.350000       0.383729

                          6       1    1dx2              1.075060       1.868171
                          6       1    1dxy              1.075060       3.235768
                          6       1    1dxz              1.075060       3.235768
                          6       1    1dy2              1.075060       1.868171
                          6       1    1dyz              1.075060       3.235768
                          6       1    1dz2              1.075060       1.868171

       Atomic covalent radius [Angstrom]:                                  0.320

       Atomic van der Waals radius [Angstrom]:                             1.090

     The atoms of this atomic kind are PAW atoms (GAPW):
       Hard Gaussian function radius:                                      1.200
       Rho0 radius:                                                        1.200
       Maximum GTO radius used for PAW projector construction:            24.566

     GAPW Soft Basis Set                                           TZP-ZORA_soft

       Number of orbital shell sets:                                           6
       Number of orbital shells:                                               6
       Number of primitive Cartesian functions:                                7
       Number of Cartesian basis functions:                                   15
       Number of spherical basis functions:                                   14
       Norm type:                                                              2

       Normalised Cartesian orbitals:

                        Set   Shell   Orbital            Exponent    Coefficient

                          1       1    1s                5.233973       0.449285
                                                         1.185033       0.695456

                          2       1    1s                0.328339       0.309138

                          3       1    1s                0.110319       0.136426

                          4       1    1px               0.718844       0.943482
                          4       1    1py               0.718844       0.943482
                          4       1    1pz               0.718844       0.943482

                          5       1    1px               0.350000       0.383729
                          5       1    1py               0.350000       0.383729
                          5       1    1pz               0.350000       0.383729

                          6       1    1dx2              1.075060       1.868171
                          6       1    1dxy              1.075060       3.235768
                          6       1    1dxz              1.075060       3.235768
                          6       1    1dy2              1.075060       1.868171
                          6       1    1dyz              1.075060       3.235768
                          6       1    1dz2              1.075060       1.868171

     AE Potential information for                                            ALL

       Description:                                       All-electron potential
                                          Krack, Parrinello, PCCP 2, 2105 (2000)

       Gaussian exponent of the core charge distribution:              12.500000
       Electronic configuration (s p d ...):                           1   0   0


 MOLECULE KIND INFORMATION


 All atoms are their own molecule, skipping detailed information


 TOTAL NUMBERS AND MAXIMUM NUMBERS

  Total number of            - Atomic kinds:                                   2
                             - Atoms:                                          2
                             - Shell sets:                                    22
                             - Shells:                                        22
                             - Primitive Cartesian functions:                 34
                             - Cartesian basis functions:                     60
                             - Spherical basis functions:                     54

  Maximum angular momentum of the orbital basis functions:                     3


 MODULE QUICKSTEP: ATOMIC COORDINATES IN ANGSTROM

   Atom Kind Element         X             Y             Z       Z(eff)     Mass
      1    1 Cl   17      9.355419     10.000000     10.000000  17.0000  35.4530
      2    2 H     1     10.644581     10.000000     10.000000   1.0000   1.0079



 SCF PARAMETERS         Density guess:                                    ATOMIC
                        --------------------------------------------------------
                        max_scf:                                              20
                        max_scf_history:                                       0
                        max_diis:                                              4
                        --------------------------------------------------------
                        eps_scf:                                        1.00E-07
                        eps_scf_history:                                0.00E+00
                        eps_diis:                                       1.00E-01
                        eps_eigval:                                     1.00E-05
                        --------------------------------------------------------
                        level_shift [a.u.]:                             0.000000
                        --------------------------------------------------------
                        Outer loop SCF in use 
                        No variables optimised in outer loop
                        eps_scf                                         1.00E-07
                        max_scf                                               50
                        No outer loop optimization
                        step_size                                       5.00E-01

 PW_GRID| Information for grid number                                          1
 PW_GRID| Grid distributed over                                   128 processors
 PW_GRID| Real space group dimensions                                   128    1
 PW_GRID| the grid is blocked:                                                NO
 PW_GRID| Cutoff [a.u.]                                                   1200.0
 PW_GRID| spherical cutoff:                                                   NO
 PW_GRID|   Bounds   1           -300     299                Points:         600
 PW_GRID|   Bounds   2           -300     299                Points:         600
 PW_GRID|   Bounds   3           -300     299                Points:         600
 PW_GRID| Volume element (a.u.^3)  0.2499E-03     Volume (a.u.^3)     53986.6767
 PW_GRID| Grid span                                                    FULLSPACE
 PW_GRID|   Distribution                         Average         Max         Min
 PW_GRID|   G-Vectors                          1687500.0     1687800     1687200
 PW_GRID|   G-Rays                                2812.5        2813        2812
 PW_GRID|   Real Space Points                  1687500.0     1800000     1440000

 PW_GRID| Information for grid number                                          2
 PW_GRID| Number of the reference grid                                         1
 PW_GRID| Grid distributed over                                   128 processors
 PW_GRID| Real space group dimensions                                   128    1
 PW_GRID| the grid is blocked:                                                NO
 PW_GRID| Cutoff [a.u.]                                                    600.0
 PW_GRID| spherical cutoff:                                                   NO
 PW_GRID|   Bounds   1           -216     215                Points:         432
 PW_GRID|   Bounds   2           -216     215                Points:         432
 PW_GRID|   Bounds   3           -216     215                Points:         432
 PW_GRID| Volume element (a.u.^3)  0.6696E-03     Volume (a.u.^3)     53986.6767
 PW_GRID| Grid span                                                    FULLSPACE
 PW_GRID|   Distribution                         Average         Max         Min
 PW_GRID|   G-Vectors                           629856.0      630288      629424
 PW_GRID|   G-Rays                                1458.0        1459        1457
 PW_GRID|   Real Space Points                   629856.0      746496      559872

 PW_GRID| Information for grid number                                          3
 PW_GRID| Number of the reference grid                                         2
 PW_GRID| Grid distributed over                                   128 processors
 PW_GRID| Real space group dimensions                                   128    1
 PW_GRID| the grid is blocked:                                                NO
 PW_GRID| Cutoff [a.u.]                                                    200.0
 PW_GRID| spherical cutoff:                                                   NO
 PW_GRID|   Bounds   1           -121     121                Points:         243
 PW_GRID|   Bounds   2           -121     121                Points:         243
 PW_GRID|   Bounds   3           -121     121                Points:         243
 PW_GRID| Volume element (a.u.^3)  0.3762E-02     Volume (a.u.^3)     53986.6767
 PW_GRID| Grid span                                                    FULLSPACE
 PW_GRID|   Distribution                         Average         Max         Min
 PW_GRID|   G-Vectors                           112100.8      112266      111780
 PW_GRID|   G-Rays                                 461.3         462         460
 PW_GRID|   Real Space Points                   112100.8      118098       59049

 PW_GRID| Information for grid number                                          4
 PW_GRID| Number of the reference grid                                         2
 PW_GRID| Grid distributed over                                   128 processors
 PW_GRID| Real space group dimensions                                   128    1
 PW_GRID| the grid is blocked:                                                NO
 PW_GRID| Cutoff [a.u.]                                                     66.7
 PW_GRID| spherical cutoff:                                                   NO
 PW_GRID|   Bounds   1            -72      71                Points:         144
 PW_GRID|   Bounds   2            -72      71                Points:         144
 PW_GRID|   Bounds   3            -72      71                Points:         144
 PW_GRID| Volume element (a.u.^3)  0.1808E-01     Volume (a.u.^3)     53986.6767
 PW_GRID| Grid span                                                    FULLSPACE
 PW_GRID|   Distribution                         Average         Max         Min
 PW_GRID|   G-Vectors                            23328.0       23472       23184
 PW_GRID|   G-Rays                                 162.0         163         161
 PW_GRID|   Real Space Points                    23328.0       41472       20736

 PW_GRID| Information for grid number                                          5
 PW_GRID| Number of the reference grid                                         2
 PW_GRID| Grid distributed over                                   128 processors
 PW_GRID| Real space group dimensions                                     8   16
 PW_GRID| the grid is blocked:                                                NO
 PW_GRID| Cutoff [a.u.]                                                     22.2
 PW_GRID| spherical cutoff:                                                   NO
 PW_GRID|   Bounds   1            -40      40                Points:          81
 PW_GRID|   Bounds   2            -40      40                Points:          81
 PW_GRID|   Bounds   3            -40      40                Points:          81
 PW_GRID| Volume element (a.u.^3)  0.1016         Volume (a.u.^3)     53986.6767
 PW_GRID| Grid span                                                    FULLSPACE
 PW_GRID|   Distribution                         Average         Max         Min
 PW_GRID|   G-Vectors                             4151.9        4293        4050
 PW_GRID|   G-Rays                                  51.3          53          50
 PW_GRID|   Real Space Points                     4151.9        5346        4050

 PW_GRID| Information for grid number                                          6
 PW_GRID| Number of the reference grid                                         2
 PW_GRID| Grid distributed over                                   128 processors
 PW_GRID| Real space group dimensions                                     8   16
 PW_GRID| the grid is blocked:                                                NO
 PW_GRID| Cutoff [a.u.]                                                      7.4
 PW_GRID| spherical cutoff:                                                   NO
 PW_GRID|   Bounds   1            -24      23                Points:          48
 PW_GRID|   Bounds   2            -24      23                Points:          48
 PW_GRID|   Bounds   3            -24      23                Points:          48
 PW_GRID| Volume element (a.u.^3)  0.4882         Volume (a.u.^3)     53986.6767
 PW_GRID| Grid span                                                    FULLSPACE
 PW_GRID|   Distribution                         Average         Max         Min
 PW_GRID|   G-Vectors                              864.0         912         816
 PW_GRID|   G-Rays                                  18.0          19          17
 PW_GRID|   Real Space Points                      864.0         864         864

 POISSON| Solver                                          Martyna-Tuckerman (MT)
 POISSON| MT| Alpha                                                        7.000
 POISSON| MT| Relative cutoff                                                2.0
 POISSON| Periodicity                                                       NONE

 RS_GRID| Information for grid number                                          2
 RS_GRID|   Bounds   1           -216     215                Points:         432
 RS_GRID|   Bounds   2           -216     215                Points:         432
 RS_GRID|   Bounds   3           -216     215                Points:         432
 RS_GRID| Real space distribution over                                  4 groups
 RS_GRID| Real space distribution along direction                              1
 RS_GRID| Border size                                                         43
 RS_GRID| Real space distribution over                                  4 groups
 RS_GRID| Real space distribution along direction                              2
 RS_GRID| Border size                                                         43
 RS_GRID| Real space distribution over                                  8 groups
 RS_GRID| Real space distribution along direction                              3
 RS_GRID| Border size                                                         43
 RS_GRID|   Distribution                         Average         Max         Min
 RS_GRID|   Planes                                 194.0         194         194
 RS_GRID|   Distribution                         Average         Max         Min
 RS_GRID|   Planes                                 194.0         194         194
 RS_GRID|   Distribution                         Average         Max         Min
 RS_GRID|   Planes                                 140.0         140         140

 RS_GRID| Information for grid number                                          3
 RS_GRID|   Bounds   1           -121     121                Points:         243
 RS_GRID|   Bounds   2           -121     121                Points:         243
 RS_GRID|   Bounds   3           -121     121                Points:         243
 RS_GRID| Real space distribution over                                  4 groups
 RS_GRID| Real space distribution along direction                              1
 RS_GRID| Border size                                                         35
 RS_GRID| Real space distribution over                                  4 groups
 RS_GRID| Real space distribution along direction                              2
 RS_GRID| Border size                                                         35
 RS_GRID| Real space distribution over                                  8 groups
 RS_GRID| Real space distribution along direction                              3
 RS_GRID| Border size                                                         35
 RS_GRID|   Distribution                         Average         Max         Min
 RS_GRID|   Planes                                 130.8         131         130
 RS_GRID|   Distribution                         Average         Max         Min
 RS_GRID|   Planes                                 130.8         131         130
 RS_GRID|   Distribution                         Average         Max         Min
 RS_GRID|   Planes                                 100.4         101         100

 RS_GRID| Information for grid number                                          4
 RS_GRID|   Bounds   1            -72      71                Points:         144
 RS_GRID|   Bounds   2            -72      71                Points:         144
 RS_GRID|   Bounds   3            -72      71                Points:         144
 RS_GRID| Real space fully replicated
 RS_GRID| Group size                                                           1

 RS_GRID| Information for grid number                                          5
 RS_GRID|   Bounds   1            -40      40                Points:          81
 RS_GRID|   Bounds   2            -40      40                Points:          81
 RS_GRID|   Bounds   3            -40      40                Points:          81
 RS_GRID| Real space fully replicated
 RS_GRID| Group size                                                           1

 RS_GRID| Information for grid number                                          6
 RS_GRID|   Bounds   1            -24      23                Points:          48
 RS_GRID|   Bounds   2            -24      23                Points:          48
 RS_GRID|   Bounds   3            -24      23                Points:          48
 RS_GRID| Real space fully replicated
 RS_GRID| Group size                                                           1

  HFX_INFO| Replica ID:                                                        1
  HFX_INFO| FRACTION:                                               0.2500000000
  HFX_INFO| Interaction Potential:                                       COULOMB
  HFX_INFO| EPS_SCHWARZ:                                                 1.0E-10
  HFX_INFO| EPS_SCHWARZ_FORCES                                           1.0E-06
  HFX_INFO| EPS_STORAGE_SCALING:                                         1.0E+00
  HFX_INFO| NBINS:                                                            64
  HFX_INFO| BLOCK_SIZE:                                                        1
  HFX_INFO| Number of periodic shells considered:                           NONE
  HFX_INFO| Number of periodic cells considered:                            NONE


 Number of electrons:                                                         18
 Number of occupied orbitals:                                                  9
 Number of molecular orbitals:                                                 9

 Number of orbital functions:                                                 54
 Number of independent orbital functions:                                     54

 Extrapolation method: initial_guess

 Atomic guess: The first density matrix is obtained in terms of atomic orbitals
               and electronic configurations assigned to each atomic kind

 Guess for atomic kind: Cl

 Electronic structure
    Total number of core electrons                                          0.00
    Total number of valence electrons                                      17.00
    Total number of electrons                                              17.00
    Multiplicity                                                   not specified
    S      2.00  2.00  2.00
    P      6.00  5.00
 

 *******************************************************************************
                  Iteration          Convergence                     Energy [au]
 *******************************************************************************
                          1        0.797245                    -458.608069847872
                          2        0.471274                    -458.622077390444
                          3        0.853293E-01                -458.639589434130
                          4        0.145617E-01                -458.640911235464
                          5        0.219747E-04                -458.640958678620
                          6        0.725058E-05                -458.640958678739
                          7        0.643239E-07                -458.640958678753

 Energy components [Hartree]           Total Energy ::         -458.640958678753
                                        Band Energy ::         -264.442909979732
                                     Kinetic Energy ::          457.531523697737
                                   Potential Energy ::         -916.172482376490
                                      Virial (-V/T) ::            2.002424827413
                                        Core Energy ::         -634.787186507261
                                          XC Energy ::          -26.622193101278
                                     Coulomb Energy ::          202.768420929786

 Orbital energies  State     L     Occupation   Energy[a.u.]          Energy[eV]

                       1     0          2.000    -100.373029        -2731.289017
                       2     0          2.000      -9.184927         -249.934562
                       3     0          2.000      -0.751994          -20.462802
 
                       1     1          6.000      -7.038682         -191.532272
                       2     1          5.000      -0.318184           -8.658228
 

 Total Electron Density at R=0:                                      3226.119690

 Guess for atomic kind: H

 Electronic structure
    Total number of core electrons                                          0.00
    Total number of valence electrons                                       1.00
    Total number of electrons                                               1.00
    Multiplicity                                                   not specified
    S      1.00
 

 *******************************************************************************
                  Iteration          Convergence                     Energy [au]
 *******************************************************************************
                          1        0.901344E-02                  -0.444560434385
                          2        0.112810E-02                  -0.444629377369
                          3        0.824978E-04                  -0.444631123607
                          4        0.531592E-07                  -0.444631130415

 Energy components [Hartree]           Total Energy ::           -0.444631130415
                                        Band Energy ::           -0.229051818617
                                     Kinetic Energy ::            0.431531450645
                                   Potential Energy ::           -0.876162581060
                                      Virial (-V/T) ::            2.030356257348
                                        Core Energy ::           -0.496316890851
                                          XC Energy ::           -0.235228547242
                                     Coulomb Energy ::            0.286914307678

 Orbital energies  State     L     Occupation   Energy[a.u.]          Energy[eV]

                       1     0          1.000      -0.229052           -6.232817
 

 Total Electron Density at R=0:                                         0.248567
 Re-scaling the density matrix to get the right number of electrons
                  # Electrons              Trace(P)               Scaling factor
                           18                18.000                        1.000


 SCF WAVEFUNCTION OPTIMIZATION

  ----------------------------------- OT ---------------------------------------
  Minimizer      : DIIS                : direct inversion
                                         in the iterative subspace
                                         using   7 DIIS vectors
                                         safer DIIS on
  Preconditioner : FULL_ALL            : diagonalization, state selective
  Precond_solver : DEFAULT
  stepsize       :    0.15000000                  energy_gap     :    0.08000000
  eps_taylor     :   0.10000E-15                  max_taylor     :             4
  ----------------------------------- OT ---------------------------------------

  Step     Update method      Time    Convergence         Total energy    Change
  ------------------------------------------------------------------------------

  HFX_MEM_INFO| Est. max. program size before HFX [MiB]:                     954
  HFX_MEM_INFO| Number of cart. primitive ERI's calculated:             25067813
  HFX_MEM_INFO| Number of sph. ERI's calculated:                         4231376
  HFX_MEM_INFO| Number of sph. ERI's stored in-core:                     4231376
  HFX_MEM_INFO| Number of sph. ERI's stored on disk:                           0
  HFX_MEM_INFO| Number of sph. ERI's calculated on the fly:                    0
  HFX_MEM_INFO| Total memory consumption ERI's RAM [MiB]:                     14
  HFX_MEM_INFO| Whereof max-vals [MiB]:                                        2
  HFX_MEM_INFO| Total compression factor ERI's RAM:                         2.41
  HFX_MEM_INFO| Total memory consumption ERI's disk [MiB]:                     0
  HFX_MEM_INFO| Total compression factor ERI's disk:                        0.00
  HFX_MEM_INFO| Size of density/Fock matrix [MiB]:                             0
  HFX_MEM_INFO| Size of buffers [MiB]:                                         0
  HFX_MEM_INFO| Est. max. program size after HFX  [MiB]:                     964

     1 OT DIIS     0.15E+00  104.2     0.18016104      -458.6028781125 -4.59E+02
     2 OT DIIS     0.15E+00   70.0     0.07265908      -460.2488960959 -1.65E+00
     3 OT DIIS     0.15E+00   56.7     0.02075564      -460.5797836159 -3.31E-01
     4 OT DIIS     0.15E+00   54.8     0.01436976      -460.6179139973 -3.81E-02
     5 OT DIIS     0.15E+00   56.6     0.00722083      -460.6498489683 -3.19E-02
     6 OT DIIS     0.15E+00   55.1     0.00414576      -460.6585746392 -8.73E-03
     7 OT DIIS     0.15E+00   51.5     0.00256289      -460.6622160863 -3.64E-03
     8 OT DIIS     0.15E+00   54.4     0.00131469      -460.6630782365 -8.62E-04
     9 OT DIIS     0.15E+00   56.5     0.00101855      -460.6633125275 -2.34E-04
    10 OT DIIS     0.15E+00   52.9     0.00050430      -460.6635483550 -2.36E-04
    11 OT DIIS     0.15E+00   54.7     0.00028778      -460.6636073005 -5.89E-05
    12 OT DIIS     0.15E+00   54.3     0.00013173      -460.6636242351 -1.69E-05
    13 OT DIIS     0.15E+00   51.4     0.00004801      -460.6636274126 -3.18E-06
    14 OT DIIS     0.15E+00   52.7     0.00002566      -460.6636276828 -2.70E-07
    15 OT DIIS     0.15E+00   52.3     0.00001656      -460.6636277501 -6.73E-08
    16 OT DIIS     0.15E+00   53.6     0.00000752      -460.6636277995 -4.94E-08
    17 OT DIIS     0.15E+00   54.7     0.00000296      -460.6636278086 -9.11E-09
    18 OT DIIS     0.15E+00   54.5     0.00000152      -460.6636278097 -1.03E-09
    19 OT DIIS     0.15E+00   56.3     0.00000046      -460.6636278100 -2.95E-10
    20 OT DIIS     0.15E+00   53.1     0.00000025      -460.6636278100 -8.87E-12

  Leaving inner SCF loop after reaching    20 steps.


  Electronic density on regular grids:         -8.7221624909        9.2778375091
  Core density on regular grids:               18.0000000000       -0.0000000000
  Hard and soft densities (Lebedev):          -19.3283070415      -10.0504705974
  Total Rho_soft + Rho1_hard - Rho1_soft      -17.9999989349
  Total charge density (r-space):               0.0000010651
  Total Rho_soft + Rho0_soft (g-space):         0.0000010051

  Overlap energy of the core charge distribution:               0.00000064732733
  Self energy of the core charge distribution:               -200.25290035557865
  Core Hamiltonian energy:                                   -265.18973263912994
  Hartree energy:                                              46.46424395813949
  Exchange-correlation energy:                                 -2.87670180867049
  Hartree-Fock Exchange energy:                                -6.96742212626098

  GAPW| Exc from hard and soft atomic rho1:                   -18.60031872853742
  GAPW| local Eh = 1 center integrals:                        -13.24079675726430

  Total energy:                                              -460.66362780997503

  outer SCF iter =    1 RMS gradient =   0.25E-06 energy =       -460.6636278100

  ----------------------------------- OT ---------------------------------------
  Minimizer      : DIIS                : direct inversion
                                         in the iterative subspace
                                         using   7 DIIS vectors
                                         safer DIIS on
  Preconditioner : FULL_ALL            : diagonalization, state selective
  Precond_solver : DEFAULT
  stepsize       :    0.15000000                  energy_gap     :    0.08000000
  eps_taylor     :   0.10000E-15                  max_taylor     :             4
  ----------------------------------- OT ---------------------------------------

  Step     Update method      Time    Convergence         Total energy    Change
  ------------------------------------------------------------------------------
     1 OT DIIS     0.15E+00  145.6     0.00000032      -460.6636278100  1.15E-11
     2 OT DIIS     0.15E+00   45.9     0.00000015      -460.6636278101 -8.74E-11
     3 OT DIIS     0.15E+00   40.3     0.00000002      -460.6636278101 -8.46E-11

  *** SCF run converged in     3 steps ***


  Electronic density on regular grids:         -8.7221624836        9.2778375164
  Core density on regular grids:               18.0000000000       -0.0000000000
  Hard and soft densities (Lebedev):          -19.3283068781      -10.0504704268
  Total Rho_soft + Rho1_hard - Rho1_soft      -17.9999989349
  Total charge density (r-space):               0.0000010651
  Total Rho_soft + Rho0_soft (g-space):         0.0000010051

  Overlap energy of the core charge distribution:               0.00000064732733
  Self energy of the core charge distribution:               -200.25290035557865
  Core Hamiltonian energy:                                   -265.18973437760485
  Hartree energy:                                              46.46424512092041
  Exchange-correlation energy:                                 -2.87670127501145
  Hartree-Fock Exchange energy:                                -6.96742195541285

  GAPW| Exc from hard and soft atomic rho1:                   -18.60031872205650
  GAPW| local Eh = 1 center integrals:                        -13.24079689271888

  Total energy:                                              -460.66362781013549

  outer SCF iter =    2 RMS gradient =   0.23E-07 energy =       -460.6636278101
  outer SCF loop converged in   2 iterations or   23 steps


 !-----------------------------------------------------------------------------!
                     Mulliken Population Analysis

 #  Atom  Element  Kind  Atomic population                           Net charge
       1     Cl       1         17.180173                             -0.180173
       2     H        2          0.819827                              0.180173
 # Total charge                             18.000000                  0.000000

 !-----------------------------------------------------------------------------!

 !-----------------------------------------------------------------------------!
                           Hirshfeld Charges

  #Atom  Element  Kind  Ref Charge     Population                    Net charge
      1       Cl     1      17.000         17.659                        -0.659
      2       H      2       1.000          0.341                         0.659

  Total Charge                                                            0.000
 !-----------------------------------------------------------------------------!

 *******************************************************************************
 **                                                                           **
 **         ######## #######   #######   ######## #######  ########           **
 **            ##    ##     ## ##     ## ##       ##   ##     ##              **
 **            ##    ##     ## ##     ## ######   #######     ##              **
 **            ##    ##     ## ##     ## ##       ##          ##              **
 **            ##    #######   #######   ##       ##          ##              **
 **                                                                           **
 *******************************************************************************
 KERNEL|                                                                    FULL
 FUNCTIONAL| PBE:
 FUNCTIONAL| J.P.Perdew, K.Burke, M.Ernzerhof, Phys. Rev. Letter, vol. 77, n 18,
 FUNCTIONAL|  pp. 3865-3868, (1996)sx=0.750sc=1.000{spin unpolarized}           
 KERNEL|                                                          Exact Exchange
 KERNEL| Spin symmetry of excitations                                    Triplet
 TDDFPT| Number of states calculated                                          10
 TDDFPT| Number of Davidson iterations                                        20
 TDDFPT| Davidson iteration convergence                                0.100E-07
 TDDFPT| Max. number of Krylov space vectors                                  60
 TDDFPT| Molecular Orbitals:        Spin       AOs       Occ      Virt     Total
 TDDFPT|                               1        54         9        45        54

 *******************************************************************************
 **                                                                           **
 **                            ####### ####### #######                        **
 **                        #   ##      ##   ## ##                             **
 **                       ###  ######  ##   ## ##                             **
 **                        #       ##  ##   ## ##                             **
 **                            ######  ####### #######                        **
 **                 Based on the xas module from Augustin Bussy               **
 *******************************************************************************
 
 -------------------------------------------------------------------------------
 -                      TDDFPT TRIPLET ENERGIES                                 -
 -------------------------------------------------------------------------------
 
 -------------------------------------------------------------------------------
 -                            TDDFPT Initial Guess                             -
 -------------------------------------------------------------------------------
          State         Occupied      ->      Virtual          Excitation
          number         orbital              orbital          energy (eV)
 -------------------------------------------------------------------------------
             1                9                   10              9.78222
             2                8                   10              9.78222
             3                7                   10             13.54785
             4                9                   11             14.91499
             5                8                   11             14.91499
             6                9                   12             17.50897
             7                8                   12             17.50897
             8                9                   13             17.66448
             9                9                   14             17.66448
            10                8                   13             17.66448

      Number of active states:                                        405
 -------------------------------------------------------------------------------
 
 -------------------------------------------------------------------------------
 -                      TDDFPT WAVEFUNCTION OPTIMIZATION                       -
 -------------------------------------------------------------------------------

          Step            Time         Convergence           Conv. states
 -------------------------------------------------------------------------------

    State    Exc. energy (eV)      Convergence (eV)
        1       7.2488510            -2.5334E+00
        2       7.2488510            -2.5334E+00
        3      10.3646070            -3.1832E+00
        4      12.5235378            -2.3915E+00
        5      12.5235378            -2.3915E+00
        6      14.6873983            -2.8216E+00
        7      15.0946454            -2.4143E+00
        8      15.1711198            -2.4934E+00
        9      15.1711198            -2.4934E+00
       10      15.3548355            -2.3096E+00
 
             1           516.2          1.1698E-01                      0

    State    Exc. energy (eV)      Convergence (eV)
        1       7.1784636            -7.0387E-02
        2       7.1784636            -7.0387E-02
        3      10.0358245            -3.2878E-01
        4      12.4228577            -1.0068E-01
        5      12.4228577            -1.0068E-01
        6      14.5659981            -1.2140E-01
        7      15.0395282            -5.5117E-02
        8      15.1102687            -6.0851E-02
        9      15.1102687            -6.0851E-02
       10      15.1941714            -1.6066E-01
 
             2           493.0          1.2083E-02                      0

    State    Exc. energy (eV)      Convergence (eV)
        1       7.1781889            -2.7474E-04
        2       7.1781889            -2.7474E-04
        3      10.0317424            -4.0822E-03
        4      12.4198806            -2.9771E-03
        5      12.4198806            -2.9771E-03
        6      14.5620063            -3.9918E-03
        7      15.0339560            -5.5722E-03
        8      15.0357879            -7.4481E-02
        9      15.1083229            -1.9457E-03
       10      15.1083229            -8.5849E-02
 
             3           510.0          3.1549E-03                      0

    State    Exc. energy (eV)      Convergence (eV)
        1       7.1781884            -4.1031E-07
        2       7.1781884            -4.1031E-07
        3      10.0317055            -3.6823E-05
        4      12.4198213            -5.9317E-05
        5      12.4198213            -5.9317E-05
        6      14.5609817            -1.0245E-03
        7      15.0302658            -3.6901E-03
        8      15.0317568            -4.0311E-03
        9      15.1082950            -2.7909E-05
       10      15.1082950            -2.7909E-05
 
             4           506.5          1.4814E-04                      0

    State    Exc. energy (eV)      Convergence (eV)
        1       7.1781884            -9.6965E-10
        2       7.1781884            -9.6966E-10
        3      10.0317052            -3.9320E-07
        4      12.4198210            -2.2018E-07
        5      12.4198210            -2.2018E-07
        6      14.5598495            -1.1322E-03
        7      14.9947002            -3.5566E-02
        8      15.0301973            -1.5595E-03
        9      15.0306268            -7.7668E-02
       10      15.1082946            -3.8976E-07
 
             5           510.5          2.8543E-03                      4

    State    Exc. energy (eV)      Convergence (eV)
        1       7.1781884            -8.5949E-13
        2       7.1781884            -8.6101E-13
        3      10.0317052            -7.1885E-10
        4      12.4198210            -2.2256E-10
        5      12.4198210            -2.2256E-10
        6      14.5597806            -6.8937E-05
        7      14.9638166            -3.0884E-02
        8      15.0301966            -7.6001E-07
        9      15.0303486            -2.7824E-04
       10      15.1082946            -6.8539E-10
 
             6           457.0          1.1350E-03                      6
 ------------------------- Restart Davidson iterations -------------------------

    State    Exc. energy (eV)      Convergence (eV)
        1       7.1781884            -1.2084E-14
        2       7.1781884            -1.0574E-14
        3      10.0317052            -4.5316E-15
        4      12.4198210             1.2084E-14
        5      12.4198210             4.5316E-15
        6      14.5597806            -3.0211E-15
        7      14.9638166            -9.0632E-15
        8      15.0301966             1.8126E-14
        9      15.0303486            -9.0632E-15
       10      15.1082946            -9.0632E-15
 
             7           444.5          6.6613E-16                     10
 
 -------------------------------------------------------------------------------
 -  TDDFPT run converged in 7 iteration(s) 
 -------------------------------------------------------------------------------

 R-TDDFPT states of multiplicity 3
 Transition dipoles calculated using length formulation

         State    Excitation        Transition dipole (a.u.)        Oscillator
         number   energy (eV)       x           y           z     strength (a.u.)
         ------------------------------------------------------------------------
 TDDFPT|      1       7.17819   0.0000E+00  0.0000E+00  0.0000E+00   0.00000E+00
 TDDFPT|      2       7.17819   0.0000E+00  0.0000E+00  0.0000E+00   0.00000E+00
 TDDFPT|      3      10.03171   0.0000E+00  0.0000E+00  0.0000E+00   0.00000E+00
 TDDFPT|      4      12.41982   0.0000E+00  0.0000E+00  0.0000E+00   0.00000E+00
 TDDFPT|      5      12.41982   0.0000E+00  0.0000E+00  0.0000E+00   0.00000E+00
 TDDFPT|      6      14.55978   0.0000E+00  0.0000E+00  0.0000E+00   0.00000E+00
 TDDFPT|      7      14.96382   0.0000E+00  0.0000E+00  0.0000E+00   0.00000E+00
 TDDFPT|      8      15.03020   0.0000E+00  0.0000E+00  0.0000E+00   0.00000E+00
 TDDFPT|      9      15.03035   0.0000E+00  0.0000E+00  0.0000E+00   0.00000E+00
 TDDFPT|     10      15.10829   0.0000E+00  0.0000E+00  0.0000E+00   0.00000E+00

 TDDFPT : CheckSum  =  0.148286E+01
 
 -------------------------------------------------------------------------------
 -                            Excitation analysis                              -
 -------------------------------------------------------------------------------
        State             Occupied              Virtual             Excitation
        number             orbital              orbital             amplitude
 -------------------------------------------------------------------------------
             1   7.17819 eV
                                 9                   10              -0.991043
                                 9                   11              -0.106969
                                 9                   12               0.053303
             2   7.17819 eV
                                 8                   10               0.991043
                                 8                   11               0.106969
                                 8                   12              -0.053303
             3  10.03171 eV
                                 7                   10               0.978086
                                 7                   11               0.164506
                                 7                   12              -0.101386
             4  12.41982 eV
                                 9                   11               0.985277
                                 9                   10              -0.112612
                                 9                   19              -0.064439
                                 8                   18               0.057601
                                 9                   17               0.057600
                                 9                   12              -0.053892
             5  12.41982 eV
                                 8                   11               0.985277
                                 8                   10              -0.112612
                                 8                   19              -0.064439
                                 9                   18               0.057601
                                 8                   17              -0.057600
                                 8                   12              -0.053892
             6  14.55978 eV
                                 9                   14               0.697844
                                 8                   13               0.697844
                                 8                   16               0.077657
                                 9                   15               0.077656
                                 7                   12               0.076956
                                 6                   10               0.067220
             7  14.96382 eV
                                 8                   16              -0.695967
                                 9                   15              -0.695936
                                 6                   10               0.090424
                                 8                   13               0.072889
                                 9                   14               0.072889
                                 9                   20              -0.061648
                                 8                   21              -0.061643
             8  15.03020 eV
                                 8                   13               0.698570
                                 9                   14              -0.698569
                                 9                   15              -0.103332
                                 8                   16               0.103325
             9  15.03035 eV
                                 8                   14              -0.700878
                                 9                   13              -0.698546
                                 8                   15              -0.099112
                                 9                   16              -0.091204
            10  15.10829 eV
                                 9                   12              -0.993058
                                 7                   14              -0.068867
                                 9                   11              -0.062927
 -------------------------------------------------------------------------------
 
 -------------------------------------------------------------------------------
 -                            Natural Orbital analysis                         -
 -------------------------------------------------------------------------------
   STATE NR.      1             7.17819 eV
     Particle-Hole state: 1   Spin:1     Eigenvalue: 0.99816   Sum Eigv: 0.99816
   STATE NR.      2             7.17819 eV
     Particle-Hole state: 1   Spin:1     Eigenvalue: 0.99816   Sum Eigv: 0.99816
   STATE NR.      3            10.03171 eV
     Particle-Hole state: 1   Spin:1     Eigenvalue: 0.99718   Sum Eigv: 0.99718
   STATE NR.      4            12.41982 eV
     Particle-Hole state: 1   Spin:1     Eigenvalue: 0.99566   Sum Eigv: 0.99566
   STATE NR.      5            12.41982 eV
     Particle-Hole state: 1   Spin:1     Eigenvalue: 0.99566   Sum Eigv: 0.99566
   STATE NR.      6            14.55978 eV
     Particle-Hole state: 1   Spin:1     Eigenvalue: 0.49350   Sum Eigv: 0.49350
     Particle-Hole state: 2   Spin:1     Eigenvalue: 0.49350   Sum Eigv: 0.98700
   STATE NR.      7            14.96382 eV
     Particle-Hole state: 1   Spin:1     Eigenvalue: 0.49663   Sum Eigv: 0.49663
     Particle-Hole state: 2   Spin:1     Eigenvalue: 0.49086   Sum Eigv: 0.98748
   STATE NR.      8            15.03020 eV
     Particle-Hole state: 1   Spin:1     Eigenvalue: 0.49906   Sum Eigv: 0.49906
     Particle-Hole state: 2   Spin:1     Eigenvalue: 0.49901   Sum Eigv: 0.99807
   STATE NR.      9            15.03035 eV
     Particle-Hole state: 1   Spin:1     Eigenvalue: 0.50140   Sum Eigv: 0.50140
     Particle-Hole state: 2   Spin:1     Eigenvalue: 0.49664   Sum Eigv: 0.99805
   STATE NR.     10            15.10829 eV
     Particle-Hole state: 1   Spin:1     Eigenvalue: 0.99388   Sum Eigv: 0.99388
 -------------------------------------------------------------------------------
 
                       triplet excitations finished                             
                                                                                
 -------------------------------------------------------------------------------
 -                      TDDFPT SINGLET ENERGIES                                -
 -------------------------------------------------------------------------------
 
 -------------------------------------------------------------------------------
 -                            TDDFPT Initial Guess                             -
 -------------------------------------------------------------------------------
          State         Occupied      ->      Virtual          Excitation
          number         orbital              orbital          energy (eV)
 -------------------------------------------------------------------------------
             1                9                   10              9.78222
             2                8                   10              9.78222
             3                7                   10             13.54785
             4                9                   11             14.91499
             5                8                   11             14.91499
             6                9                   12             17.50897
             7                8                   12             17.50897
             8                9                   13             17.66448
             9                9                   14             17.66448
            10                8                   13             17.66448

      Number of active states:                                        405
 -------------------------------------------------------------------------------
 
 -------------------------------------------------------------------------------
 -                      TDDFPT WAVEFUNCTION OPTIMIZATION                       -
 -------------------------------------------------------------------------------

          Step            Time         Convergence           Conv. states
 -------------------------------------------------------------------------------

    State    Exc. energy (eV)      Convergence (eV)
        1       8.0542604            -1.7280E+00
        2       8.0542604            -1.7280E+00
        3      13.3602580            -1.8759E-01
        4      13.3602580            -1.5547E+00
        5      13.3621751            -1.5528E+00
        6      15.5066482            -2.0023E+00
        7      15.5066482            -2.0023E+00
        8      15.5951094            -2.0694E+00
        9      15.6050649            -2.0594E+00
[...]
 flops     9 x     9 x    14              4749192       0.0%    100.0%      0.0%
 flops    40 x    40 x     9              8755200       0.0%    100.0%      0.0%
 flops    14 x     9 x    40             10735200       0.0%    100.0%      0.0%
 flops    40 x     9 x    14             10735200       0.0%    100.0%      0.0%
 flops     9 x     9 x    40             13569120       0.0%    100.0%      0.0%
 flops    40 x     9 x    40             32486400       0.0%    100.0%      0.0%
 flops inhomo. stacks                           0       0.0%      0.0%      0.0%
 flops total                        94.417398E+06       0.0%    100.0%      0.0%
 flops max/rank                     66.257622E+06       0.0%    100.0%      0.0%
 matmuls inhomo. stacks                         0       0.0%      0.0%      0.0%
 matmuls total                               9924       0.0%    100.0%      0.0%
 number of processed stacks                  9124       0.0%    100.0%      0.0%
 average stack size                                     0.0       1.1       0.0
 marketing flops                    98.769296E+06
 -------------------------------------------------------------------------------
 # multiplications                           1722
 max memory usage/rank               1.543303E+09
 # max total images/rank                        2
 # max 3D layers                                1
 # MPI messages exchanged                 6392064
 MPI messages size (bytes):
  total size                       445.305856E+06
  min size                           0.000000E+00
  max size                          17.280000E+03
  average size                      69.665428E+00
 MPI breakdown and total messages size (bytes):
             size <=      128             6318116                        0
       128 < size <=     8192               58800                184350296
      8192 < size <=    32768               15148                260955520
     32768 < size <=   131072                   0                        0
    131072 < size <=  4194304                   0                        0
   4194304 < size <= 16777216                   0                        0
  16777216 < size                               0                        0
 -------------------------------------------------------------------------------

 *** WARNING in dbcsr_mm.F:291 :: Using a non-square number of MPI ranks ***
 *** might lead to poor performance. Used ranks: 128 Suggested: 121 256  ***

 -------------------------------------------------------------------------------
 -                                                                             -
 -                      DBCSR MESSAGE PASSING PERFORMANCE                      -
 -                                                                             -
 -------------------------------------------------------------------------------
 ROUTINE             CALLS      AVE VOLUME [Bytes]
 MP_Bcast               22                     12.
 MP_Allreduce         7334                      8.
 MP_Alltoall         28538                  37266.
 MP_ISend           109356                    386.
 MP_IRecv           106726                    120.
 -------------------------------------------------------------------------------

 -------------------------------------------------------------------------------
 -                                                                             -
 -                                DBM STATISTICS                               -
 -                                                                             -
 -------------------------------------------------------------------------------
    M  x    N  x    K                                          COUNT     PERCENT
 -------------------------------------------------------------------------------

 -------------------------------------------------------------------------------
 -                                                                             -
 -                                GRID STATISTICS                              -
 -                                                                             -
 -------------------------------------------------------------------------------
 LP    KERNEL             BACKEND                              COUNT     PERCENT
 2     collocate general  CPU                                  24320      20.15%
 2     integrate general  CPU                                  23808      19.73%
 1     collocate ortho    CPU                                  10292       8.53%
 1     integrate ortho    CPU                                  10106       8.37%
 2     collocate ortho    CPU                                   9794       8.11%
 2     integrate ortho    CPU                                   9617       7.97%
 3     collocate ortho    CPU                                   6308       5.23%
 3     integrate ortho    CPU                                   6194       5.13%
 0     collocate ortho    CPU                                   6142       5.09%
 0     integrate ortho    CPU                                   6031       5.00%
 4     collocate ortho    CPU                                   2822       2.34%
 4     integrate ortho    CPU                                   2771       2.30%
 5     collocate ortho    CPU                                    830       0.69%
 5     integrate ortho    CPU                                    815       0.68%
 0     collocate general  CPU                                    256       0.21%
 0     integrate general  CPU                                    256       0.21%
 6     collocate ortho    CPU                                    166       0.14%
 6     integrate ortho    CPU                                    163       0.14%
 -------------------------------------------------------------------------------

 MEMORY| Estimated peak process memory [MiB]                                1482

 -------------------------------------------------------------------------------
 ----                             MULTIGRID INFO                            ----
 -------------------------------------------------------------------------------
 count for grid        1:         563991          cutoff [a.u.]          600.00
 count for grid        2:          83270          cutoff [a.u.]          200.00
 count for grid        3:          89061          cutoff [a.u.]           66.67
 count for grid        4:          24985          cutoff [a.u.]           22.22
 count for grid        5:           1280          cutoff [a.u.]            7.41
 total gridlevel count  :         762587

 -------------------------------------------------------------------------------
 -                                                                             -
 -                         MESSAGE PASSING PERFORMANCE                         -
 -                                                                             -
 -------------------------------------------------------------------------------

 ROUTINE             CALLS      AVE VOLUME [Bytes]
 MP_Group                6
 MP_Bcast             1041                 349024.
 MP_Allreduce         7481                  17387.
 MP_Sync              1604
 MP_Alltoall          4368               19057124.
 MP_SendRecv         63246                 127152.
 MP_ISendRecv       139319                  66227.
 MP_Wait            178556
 MP_comm_split          81
 MP_ISend            32882                 801151.
 MP_IRecv            35516                 741681.
 -------------------------------------------------------------------------------


 -------------------------------------------------------------------------------
 -                                                                             -
 -                           R E F E R E N C E S                               -
 -                                                                             -
 -------------------------------------------------------------------------------
 
 CP2K version 2024.1 (Development Version), the CP2K developers group (2024).
 CP2K is freely available from https://www.cp2k.org/ .

 Kuehne,Thomas D.; Iannuzzi,Marcella; Del Ben,Mauro;
 Rybkin,Vladimir V.; Seewald,Patrick; Stein,Frederick; Laino,Teodoro;
 Khaliullin,Rustam Z.; Schuett,Ole; Schiffmann,Florian; Golze,Dorothea;
 Wilhelm,Jan; Chulkov,Sergey; Bani-Hashemian,Mohammad Hossein;
 Weber,Valery; Borstnik,Urban; Taillefumier,Mathieu;
 Jakobovits,Alice Shoshana; Lazzaro,Alfio; Pabst,Hans; Mueller,Tiziano;
 Schade,Robert; Guidon,Manuel; Andermatt,Samuel; Holmberg,Nico;
 Schenter,Gregory K.; Hehn,Anna; Bussy,Augustin; Belleflamme,Fabian;
 Tabacchi,Gloria; Gloess,Andreas; Lass,Michael; Bethune,Iain;
 Mundy,Christopher J.; Plessl,Christian; Watkins,Matt;
 VandeVondele,Joost; Krack,Matthias; Hutter,Juerg. 
 The Journal of Chemical Physics, 152 (19), (2020). 
 CP2K: An electronic structure and molecular dynamics software package -
 Quickstep: Efficient and accurate electronic structure calculations.
 https://doi.org/10.1063/5.0007045

 Schuett, Ole; Messmer, Peter; Hutter, Juerg; VandeVondele, Joost. 
 Electronic Structure Calculations on Graphics Processing Units, John
 Wiley & Sons, Ltd, 173-190 (2016). 
 GPU-Accelerated Sparse Matrix-Matrix Multiplication for
 Linear Scaling Density Functional Theory.
 https://doi.org/10.1002/9781118670712.ch8

 Heinecke, A; Henry, G; Hutchinson, M; Pabst, H. 
 Proceedings of Intl. Supercomputing Conference, 981-991 (2016). 
 LIBXSMM: Accelerating Small Matrix Multiplications
 by Runtime Code Generation.
 https://doi.org/10.1109/SC.2016.83

 Borstnik, U; VandeVondele, J; Weber, V; Hutter, J. 
 PARALLEL COMPUTING, 40 (5-6), 47-58 (2014). 
 Sparse matrix multiplication: The distributed block-compressed sparse
 row library.
 https://doi.org/10.1016/j.parco.2014.03.012

 Hutter, J; Iannuzzi, M; Schiffmann, F; VandeVondele, J. 
 WIREs Comput Mol Sci., 4 (1), 15-25 (2014). 
 CP2K: atomistic simulations of condensed matter systems.
 https://doi.org/10.1002/wcms.1159

 Guidon, M; Hutter, J; VandeVondele, J. 
 JOURNAL OF CHEMICAL THEORY AND COMPUTATION, 5 (11), 3010-3021 (2009). 
 Robust Periodic Hartree-Fock Exchange for Large-Scale Simulations Using
 Gaussian Basis Sets.
 https://doi.org/10.1021/ct900494g

 Guidon, M; Schiffmann, F; Hutter, J; VandeVondele, J. 
 JOURNAL OF CHEMICAL PHYSICS, 128 (21), 214104 (2008). 
 Ab initio molecular dynamics using hybrid density functionals.
 https://doi.org/10.1063/1.2931945

 Frigo, M; Johnson, SG. 
 PROCEEDINGS OF THE IEEE, 93 (2), 216-231 (2005). 
 The design and implementation of FFTW3.
 https://doi.org/10.1109/JPROC.2004.840301

 Iannuzzi, M; Chassaing, T; Wallman, T; Hutter, J. 
 CHIMIA, 59 (7-8), 499-503 (2005). 
 Ground and excited state density functional calculations with the
 Gaussian and augmented-plane-wave method.
 https://doi.org/10.2533/000942905777676164

 VandeVondele, J; Hutter, J. 
 JOURNAL OF CHEMICAL PHYSICS, 118 (10), 4365-4369 (2003). 
 An efficient orbital transformation method for electronic structure
 calculations.
 https://doi.org/10.1063/1.1543154

 Martin,Richard L.. 
 The Journal of Chemical Physics, 118 (11), 4775-4777 (2003). 
 Natural transition orbitals.
 https://doi.org/10.1063/1.1558471

 Lippert, G; Hutter, J; Parrinello, M. 
 THEORETICAL CHEMISTRY ACCOUNTS, 103 (2), 124-140 (1999). 
 The Gaussian and augmented-plane-wave density functional method for ab
 initio molecular dynamics simulations.
 https://doi.org/10.1007/s002140050523

 Krack, M; Parrinello, M. 
 PHYSICAL CHEMISTRY CHEMICAL PHYSICS, 2 (10), 2105-2112 (2000). 
 All-electron ab-initio molecular dynamics.
 https://doi.org/10.1039/b001167n

 Martyna, GJ; Tuckerman, ME. 
 JOURNAL OF CHEMICAL PHYSICS, 110 (6), 2810-2821 (1999). 
 A reciprocal space based method for treating long range interactions in
 ab initio and force-field-based calculations in clusters.
 https://doi.org/10.1063/1.477923

 Perdew, JP; Burke, K; Ernzerhof, M. 
 PHYSICAL REVIEW LETTERS, 77 (18), 3865-3868 (1996). 
 Generalized gradient approximation made simple.
 https://doi.org/10.1103/PhysRevLett.77.3865


 -------------------------------------------------------------------------------
 -                                                                             -
 -                                T I M I N G                                  -
 -                                                                             -
 -------------------------------------------------------------------------------
 SUBROUTINE                       CALLS  ASD         SELF TIME        TOTAL TIME
                                MAXIMUM       AVERAGE  MAXIMUM  AVERAGE  MAXIMUM
 CP2K                                 1  1.0    5.167    5.804 9122.167 9122.245
 qs_energies                          1  2.0    0.010    0.046 9060.735 9060.835
 qs_energies_properties               1  3.0    0.000    0.001 7687.549 7687.633
 tddfpt                               1  4.0    0.012    0.066 7687.548 7687.633
 tddfpt_soc_energies                  1  5.0    0.001    0.012 7659.069 7659.172
 tddfpt_energies                      2  6.0    0.003    0.044 7576.091 7576.219
 tddfpt_davidson_solver               4  7.0    0.030    0.105 6980.668 6980.734
 tddfpt_compute_Aop_evects           14  8.0    0.009    0.046 6194.812 6195.064
 fhxc_kernel                         14  9.0    0.030    0.093 4172.720 4172.985
 mp_waitall_1                    335904 14.3 2543.720 2578.988 2543.720 2578.988
 qs_rho_update_rho_low              166  9.3    0.015    0.072 1938.612 1942.115
 calculate_rho_elec                 166 10.3    0.337    0.571 1875.604 1877.490
 density_rs2pw                      166 11.3    0.017    0.060 1847.015 1850.675
 integrate_v_rspace                 163  9.9    0.005    0.029 1773.663 1776.903
 cp_dbcsr_sm_fm_multiply            886  9.5    0.012    0.048 1739.820 1753.146
 potential_pw2rs                    163 10.9    0.038    0.078 1733.576 1741.008
 tddfpt_apply_hfx                    14  9.0    0.002    0.015 1722.227 1722.353
 transfer_rs2pw                     926 12.2    0.009    0.021 1633.948 1644.146
 transfer_pw2rs                     909 11.8    0.011    0.032 1608.339 1616.162
 dbcsr_complete_redistribute       2874 11.5    0.076    0.249 1421.225 1450.865
 mp_sendrecv_dv                   63246 14.3 1372.046 1384.902 1372.046 1384.902
 scf_env_do_scf                       1  3.0    0.002    0.022 1343.781 1343.804
 scf_env_do_scf_inner_loop           23  4.0    0.008    0.044 1193.896 1193.971
 integrate_four_center              303 10.8    0.085    0.174 1162.735 1166.151
 transfer_pw2rs_70                  163 12.9    4.518    7.326  992.664 1034.458
 tddft_hfx_matrix                   280 10.0    0.012    0.052 1025.079 1028.471
 copy_dbcsr_to_fm                   962 10.4    0.008    0.034 1012.133 1025.673
 dbcsr_multiply_generic            1722 11.0    0.072    0.133  885.579  902.479
 transfer_rs2pw_70                  166 13.3    2.871    6.223  884.865  901.195
 pw_transfer                       3644 12.2    0.307    0.459  758.658  769.403
 fft_wrap_pw1pw2                   3363 13.3    0.033    0.081  757.437  768.023
 fft3d_ps                          3363 15.3   77.424   83.446  715.815  727.067
 copy_fm_to_dbcsr                  1908 10.6    0.004    0.017  664.201  694.169
 mp_alltoall_d11v                 11909 12.7  614.942  664.102  614.942  664.102
 integrate_four_center_getP         303 11.8    0.041    0.082  590.750  593.740
 cp_fm_syevd                         81  9.2    0.010    0.044  564.335  565.916
 integrate_four_center_dist_KS      303 11.8    0.041    0.077  532.086  532.987
 mp_alltoall_z22v                  3363 17.3  514.227  530.160  514.227  530.160
 fft_wrap_pw1pw2_600               2046 14.4    7.659    9.141  516.908  527.397
 tddfpt_orthonormalize_psi1_psi      16  7.9    0.013    0.062  514.662  517.568
 mp_alltoall_i11v                  9654 12.5  511.790  512.706  511.790  512.706
 tddfpt_print_nto_analysis            2  7.0    0.018    0.091  503.787  504.119
 qs_ks_update_qs_env                 25  5.0    0.000    0.000  501.104  501.374
 rebuild_ks_matrix                   23  6.0    0.002    0.024  498.114  498.451
 qs_ks_build_kohn_sham_matrix        23  7.0    0.027    0.086  498.111  498.451
 qs_scf_new_mos                      23  5.0    0.000    0.013  479.404  479.611
 qs_scf_loop_do_ot                   23  6.0    0.000    0.013  479.404  479.611
 ot_scf_mini                         23  7.0    0.001    0.013  464.110  464.313
 cp_fm_redistribute_end              81 10.2  252.954  454.229  257.651  457.630
 mp_sum_l                          7102 11.3  412.792  427.027  412.792  427.027
 cp_fm_syevd_base                    81 10.2  197.115  398.625  197.115  398.625
 cp_dbcsr_sm_fm_multiply_core       886 10.5    0.001    0.012  357.563  372.686
 mp_waitany                       32882 13.9  334.194  372.107  334.194  372.107
 tddfpt_apply_xc_analytic           140 10.0    1.145    1.848  340.082  341.232
 mp_cart_sub                       1932 12.4  313.595  314.867  313.595  314.867
 xc_pw_derive                      1197 11.7    0.033    0.079  306.126  310.383
 cp_fm_geeig                         20  8.0    0.008    0.045  306.841  307.153
 tddfpt_apply_energy_diff            14  9.0    0.000    0.001  299.856  299.961
 cp_dbcsr_plus_fm_fm_t_native       141 10.0    0.005    0.038  280.279  282.165
 transfer_pw2rs_30                  163 12.9    0.484    0.966  255.867  275.404
 dbcsr_desymmetrize_deep            963 11.4    0.015    0.073  256.895  271.095
 transfer_rs2pw_30                  166 13.3    0.369    1.155  253.790  266.615
 yz_to_x                           1249 16.7    6.561    7.856  249.508  263.002
 mp_sum_dv                         4503 10.2  254.688  258.624  254.688  258.624
 sum_up_and_integrate                23  8.0    0.003    0.035  253.164  253.654
 x_to_yz                           1456 16.0    9.607   13.669  246.544  250.258
 mp_sync                           1604 12.6  220.025  244.097  220.025  244.097
 ot_mini                             23  8.0    0.010    0.046  241.758  242.063
 transfer_rs2pw_10                  166 13.3    0.079    0.137  236.711  241.122
 multiply_cannon                   1722 12.0    0.089    0.149  227.577  239.623
 mp_alltoall_i22                   3860 12.5  198.429  237.035  198.429  237.035
 cp_fm_trace_a1b1t1_aa             3880  9.0    0.011    0.085  228.541  231.841
 transfer_pw2rs_10                  163 12.9    0.112    0.184  216.009  220.906
 transfer_rs2pw_200                 166 13.3    1.654    2.279  208.915  217.042
 qs_ot_get_derivative                23  9.0    0.006    0.037  199.433  199.670
 make_m2s                          3444 12.0    0.029    0.055  180.414  191.137
 make_images                       3444 13.0    0.051    0.110  180.347  191.070
 make_images_sizes                 3444 14.0    0.003    0.038  180.085  190.741
 mp_alltoall_i44                   3444 15.0  180.081  190.739  180.081  190.739
 tddfpt_compute_residual_vects       10  8.0    0.000    0.000  186.761  187.062
 qs_ot_get_p                         25  7.8    0.001    0.024  184.505  184.849
 -------------------------------------------------------------------------------

 The number of warnings for this run is : 1
 
 -------------------------------------------------------------------------------
  **** **** ******  **  PROGRAM ENDED AT                 2024-02-01 11:48:19.391
 ***** ** ***  *** **   PROGRAM RAN ON                               nesh-srp133
 **    ****   ******    PROGRAM RAN BY                                  suphc355
 ***** **    ** ** **   PROGRAM PROCESS ID                                330328
  **** **  *******  **  PROGRAM STOPPED IN /gxfs_work/cau/suphc355/homologes/HX/
                                           AE/Cl
