 DBCSR| CPU Multiplication driver                                           XSMM (U)
 DBCSR| Multrec recursion limit                                              512 (U)
 DBCSR| Multiplication stack size                                           1000 (D)
 DBCSR| Maximum elements for images                                    UNLIMITED (U)
 DBCSR| Multiplicative factor virtual images                                   1 (U)
 DBCSR| Use multiplication densification                                       T (D)
 DBCSR| Multiplication size stacks                                             3 (U)
 DBCSR| Use memory pool for CPU allocation                                     F (U)
 DBCSR| Number of 3D layers                                               SINGLE (U)
 DBCSR| Use MPI memory allocation                                              F (U)
 DBCSR| Use RMA algorithm                                                      F (U)
 DBCSR| Use Communication thread                                               T (U)
 DBCSR| Communication thread load                                             87 (D)
 DBCSR| MPI: My process id                                                     0
 DBCSR| MPI: Number of processes                                             128
 DBCSR| OMP: Current number of threads                                         1
 DBCSR| OMP: Max number of threads                                             1
 DBCSR| Split modifier for TAS multiplication algorithm                  1.0E+00 (U)


  **** **** ******  **  PROGRAM STARTED AT               2024-02-02 10:16:36.685
 ***** ** ***  *** **   PROGRAM STARTED ON                           nesh-srp113
 **    ****   ******    PROGRAM STARTED BY                              suphc355
 ***** **    ** ** **   PROGRAM PROCESS ID                                564482
  **** **  *******  **  PROGRAM STARTED IN /gxfs_work/cau/suphc355/homologes/HX/
                                           AE/Cl

 CP2K| version string:                 CP2K version 2024.1 (Development Version)
 CP2K| source code revision number:                                  git:b6f9133
 CP2K| cp2kflags: omp libint fftw3 libxc libgrpp parallel mpi_f08 scalapack cosm
 CP2K|            a xsmm spglib mkl
 CP2K| is freely available from                            https://www.cp2k.org/
 CP2K| Program compiled at                          Fr 26. Jan 09:14:30 CET 2024
 CP2K| Program compiled on                                           nesh-login3
 CP2K| Program compiled for                                                local
 CP2K| Data directory path            /gxfs_home/cau/suphc355/software/cp2k/data
 CP2K| Input file name                                                AE_aug.inp
 
 GLOBAL| Force Environment number                                              1
 GLOBAL| Basis set file name                                  ../../../basis_aug
 GLOBAL| Potential file name                                           POTENTIAL
 GLOBAL| MM Potential file name                                     MM_POTENTIAL
 GLOBAL| Coordinate file name                                            opt.xyz
 GLOBAL| Method name                                                        CP2K
 GLOBAL| Project name                                                 HCl_AE_aug
 GLOBAL| Run type                                                         ENERGY
 GLOBAL| FFT library                                                       FFTW3
 GLOBAL| Diagonalization library                                       ScaLAPACK
 GLOBAL| DGEMM library                                                      BLAS
 GLOBAL| Orthonormality check for eigenvectors                          DISABLED
 GLOBAL| Matrix multiplication library                                     COSMA
 GLOBAL| All-to-all communication in single precision                          F
 GLOBAL| FFTs using library dependent lengths                                  F
 GLOBAL| Grid backend                                                       AUTO
 GLOBAL| Global print level                                               MEDIUM
 GLOBAL| MPI I/O enabled                                                       T
 GLOBAL| Total number of message passing processes                           128
 GLOBAL| Number of threads for this process                                    1
 GLOBAL| This output is from process                                           0
 GLOBAL| Stack size for threads created by OpenMP (OMP_STACKSIZE)        default
 GLOBAL| CPU model name                              Intel(R) Xeon(R) Gold 6426Y
 GLOBAL| CPUID                                                              1003

 MEMORY| system memory details [Kb]
 MEMORY|                        rank 0           min           max       average
 MEMORY| MemTotal            263786136     263786136     263786136     263786136
 MEMORY| MemFree             242571072     242571072     242830708     242654792
 MEMORY| Buffers               1043368        956156       1043396       1021568
 MEMORY| Cached                1034884        897984       1038820       1001653
 MEMORY| Slab                   655800        566980        661560        634289
 MEMORY| SReclaimable           214788        156432        215472        197993
 MEMORY| MemLikelyFree       244864112     244840480     244929036     244876007


 *** Fundamental physical constants (SI units) ***

 *** Literature: B. J. Mohr and B. N. Taylor,
 ***             CODATA recommended values of the fundamental physical
 ***             constants: 2006, Web Version 5.1
 ***             http://physics.nist.gov/constants

 Speed of light in vacuum [m/s]                             2.99792458000000E+08
 Magnetic constant or permeability of vacuum [N/A**2]       1.25663706143592E-06
 Electric constant or permittivity of vacuum [F/m]          8.85418781762039E-12
 Planck constant (h) [J*s]                                  6.62606896000000E-34
 Planck constant (h-bar) [J*s]                              1.05457162825177E-34
 Elementary charge [C]                                      1.60217648700000E-19
 Electron mass [kg]                                         9.10938215000000E-31
 Electron g factor [ ]                                     -2.00231930436220E+00
 Proton mass [kg]                                           1.67262163700000E-27
 Fine-structure constant                                    7.29735253760000E-03
 Rydberg constant [1/m]                                     1.09737315685270E+07
 Avogadro constant [1/mol]                                  6.02214179000000E+23
 Boltzmann constant [J/K]                                   1.38065040000000E-23
 Atomic mass unit [kg]                                      1.66053878200000E-27
 Bohr radius [m]                                            5.29177208590000E-11

 *** Conversion factors ***

 [u] -> [a.u.]                                              1.82288848426455E+03
 [Angstrom] -> [Bohr] = [a.u.]                              1.88972613288564E+00
 [a.u.] = [Bohr] -> [Angstrom]                              5.29177208590000E-01
 [a.u.] -> [s]                                              2.41888432650478E-17
 [a.u.] -> [fs]                                             2.41888432650478E-02
 [a.u.] -> [J]                                              4.35974393937059E-18
 [a.u.] -> [N]                                              8.23872205491840E-08
 [a.u.] -> [K]                                              3.15774647902944E+05
 [a.u.] -> [kJ/mol]                                         2.62549961709828E+03
 [a.u.] -> [kcal/mol]                                       6.27509468713739E+02
 [a.u.] -> [Pa]                                             2.94210107994716E+13
 [a.u.] -> [bar]                                            2.94210107994716E+08
 [a.u.] -> [atm]                                            2.90362800883016E+08
 [a.u.] -> [eV]                                             2.72113838565563E+01
 [a.u.] -> [Hz]                                             6.57968392072181E+15
 [a.u.] -> [1/cm] (wave numbers)                            2.19474631370540E+05
 [a.u./Bohr**2] -> [1/cm]                                   5.14048714338585E+03
 

 CELL_TOP| Volume [angstrom^3]:                                      8000.000000
 CELL_TOP| Vector a [angstrom    20.000     0.000     0.000   |a| =    20.000000
 CELL_TOP| Vector b [angstrom     0.000    20.000     0.000   |b| =    20.000000
 CELL_TOP| Vector c [angstrom     0.000     0.000    20.000   |c| =    20.000000
 CELL_TOP| Angle (b,c), alpha [degree]:                                90.000000
 CELL_TOP| Angle (a,c), beta  [degree]:                                90.000000
 CELL_TOP| Angle (a,b), gamma [degree]:                                90.000000
 CELL_TOP| Numerically orthorhombic:                                         YES
 CELL_TOP| Periodicity                                                      NONE
 
 GENERATE|  Preliminary Number of Bonds generated:                             0
 GENERATE|  Achieved consistency in connectivity generation.

 CELL| Volume [angstrom^3]:                                          8000.000000
 CELL| Vector a [angstrom]:      20.000     0.000     0.000   |a| =    20.000000
 CELL| Vector b [angstrom]:       0.000    20.000     0.000   |b| =    20.000000
 CELL| Vector c [angstrom]:       0.000     0.000    20.000   |c| =    20.000000
 CELL| Angle (b,c), alpha [degree]:                                    90.000000
 CELL| Angle (a,c), beta  [degree]:                                    90.000000
 CELL| Angle (a,b), gamma [degree]:                                    90.000000
 CELL| Numerically orthorhombic:                                             YES
 CELL| Periodicity                                                          NONE

 CELL_REF| Volume [angstrom^3]:                                      8000.000000
 CELL_REF| Vector a [angstrom    20.000     0.000     0.000   |a| =    20.000000
 CELL_REF| Vector b [angstrom     0.000    20.000     0.000   |b| =    20.000000
 CELL_REF| Vector c [angstrom     0.000     0.000    20.000   |c| =    20.000000
 CELL_REF| Angle (b,c), alpha [degree]:                                90.000000
 CELL_REF| Angle (a,c), beta  [degree]:                                90.000000
 CELL_REF| Angle (a,b), gamma [degree]:                                90.000000
 CELL_REF| Numerically orthorhombic:                                         YES
 CELL_REF| Periodicity                                                      NONE

 *******************************************************************************
 *******************************************************************************
 **                                                                           **
 **     #####                         ##              ##                      **
 **    ##   ##            ##          ##              ##                      **
 **   ##     ##                       ##            ######                    **
 **   ##     ##  ##   ##  ##   #####  ##  ##   ####   ##    #####    #####    **
 **   ##     ##  ##   ##  ##  ##      ## ##   ##      ##   ##   ##  ##   ##   **
 **   ##  ## ##  ##   ##  ##  ##      ####     ###    ##   ######   ######    **
 **    ##  ###   ##   ##  ##  ##      ## ##      ##   ##   ##       ##        **
 **     #######   #####   ##   #####  ##  ##  ####    ##    #####   ##        **
 **           ##                                                    ##        **
 **                                                                           **
 **                                                ... make the atoms dance   **
 **                                                                           **
 **            Copyright (C) by CP2K developers group (2000-2024)             **
 **                      J. Chem. Phys. 152, 194103 (2020)                    **
 **                                                                           **
 *******************************************************************************

 DFT| Spin restricted Kohn-Sham (RKS) calculation                            RKS
 DFT| Multiplicity                                                             1
 DFT| Number of spin states                                                    1
 DFT| Charge                                                                   0
 DFT| Self-interaction correction (SIC)                                       NO
 DFT| Cutoffs: density                                              1.000000E-10
 DFT|          gradient                                             1.000000E-10
 DFT|          tau                                                  1.000000E-10
 DFT|          cutoff_smoothing_range                               0.000000E+00
 DFT| XC density smoothing                                                  NONE
 DFT| XC derivatives                                                          PW

 FUNCTIONAL| PBE:
 FUNCTIONAL| J.P.Perdew, K.Burke, M.Ernzerhof, Phys. Rev. Letter, vol. 77, n 18,
 FUNCTIONAL|  pp. 3865-3868, (1996)sx=0.750sc=1.000{spin unpolarized}           


 QS| Method:                                                                GAPW
 QS| Density plane wave grid type                        NON-SPHERICAL FULLSPACE
 QS| Number of grid levels:                                                    5
 QS| Density cutoff [a.u.]:                                                600.0
 QS| Multi grid cutoff [a.u.]: 1) grid level                               600.0
 QS|                           2) grid level                               200.0
 QS|                           3) grid level                                66.7
 QS|                           4) grid level                                22.2
 QS|                           5) grid level                                 7.4
 QS| Grid level progression factor:                                          3.0
 QS| Relative density cutoff [a.u.]:                                        40.0
 QS| Interaction thresholds: eps_pgf_orb:                                1.0E-30
 QS|                         eps_filter_matrix:                          0.0E+00
 QS|                         eps_core_charge:                            1.0E-17
 QS|                         eps_rho_gspace:                             1.0E-15
 QS|                         eps_rho_rspace:                             1.0E-15
 QS|                         eps_gvg_rspace:                             3.2E-08
 QS|                         eps_ppl:                                    1.0E-02
 QS|                         eps_ppnl:                                   3.2E-10
 QS| GAPW|      One center basis from orbital basis primitives
 QS| GAPW|                   eps_fit:                                    1.0E-04
 QS| GAPW|                   eps_iso:                                    1.0E-12
 QS| GAPW|                   eps_svd:                                    1.0E-08
 QS| GAPW|                   eps_cpc:                                    1.0E-15
 QS| GAPW|   atom-r-grid: quadrature:                                     GC_LOG
 QS| GAPW|      atom-s-grid:  max l :                                          8
 QS| GAPW|      max_l_rho0 :                                                   2


 ATOMIC KIND INFORMATION

  1. Atomic kind: Cl                                    Number of atoms:       1

     Orbital Basis Set                                               aug-cc-pVQZ

       Number of orbital shell sets:                                          10
       Number of orbital shells:                                              22
       Number of primitive Cartesian functions:                               38
       Number of Cartesian basis functions:                                  109
       Number of spherical basis functions:                                   84
       Norm type:                                                              2

       Normalised Cartesian orbitals:

                        Set   Shell   Orbital            Exponent    Coefficient

                          1       1    1s           834900.000000       0.456078
                                                    125000.000000       0.853565
                                                     28430.000000       1.478942
                                                      8033.000000       2.419799
                                                      2608.000000       3.761804
                                                       933.900000       5.497407
                                                       360.000000       7.259669
                                                       147.000000       7.954421
                                                        62.880000       6.095099
                                                        27.600000       2.325174
                                                        11.080000       0.204037
                                                         5.075000      -0.008959
                                                         2.278000       0.002896
                                                         0.777500      -0.000502
                                                         0.352700       0.000139
                                                         0.143100      -0.000020

                          1       2    2s           834900.000000      -0.127884
                                                    125000.000000      -0.239218
                                                     28430.000000      -0.415249
                                                      8033.000000      -0.680326
                                                      2608.000000      -1.067703
                                                       933.900000      -1.589156
                                                       360.000000      -2.210874
                                                       147.000000      -2.699624
                                                        62.880000      -2.668408
                                                        27.600000      -1.499827
                                                        11.080000       0.497358
                                                         5.075000       1.358225
                                                         2.278000       0.583593
                                                         0.777500       0.025180
                                                         0.352700      -0.002176
                                                         0.143100       0.000316

                          1       3    3s           834900.000000       0.000000
                                                    125000.000000       0.000000
                                                     28430.000000       0.000000
                                                      8033.000000       0.000000
                                                      2608.000000       0.000000
                                                       933.900000       0.000000
                                                       360.000000       0.000000
                                                       147.000000       0.000000
                                                        62.880000       0.000000
                                                        27.600000       0.000000
                                                        11.080000       0.000000
                                                         5.075000       0.000000
                                                         2.278000       0.000000
                                                         0.777500       0.590113
                                                         0.352700       0.000000
                                                         0.143100       0.000000

                          1       4    4s           834900.000000       0.000000
                                                    125000.000000       0.000000
                                                     28430.000000       0.000000
                                                      8033.000000       0.000000
                                                      2608.000000       0.000000
                                                       933.900000       0.000000
                                                       360.000000       0.000000
                                                       147.000000       0.000000
                                                        62.880000       0.000000
                                                        27.600000       0.000000
                                                        11.080000       0.000000
                                                         5.075000       0.000000
                                                         2.278000       0.000000
                                                         0.777500       0.000000
                                                         0.352700       0.326185
                                                         0.143100       0.000000

                          1       5    5s           834900.000000       0.038710
                                                    125000.000000       0.072311
                                                     28430.000000       0.125784
                                                      8033.000000       0.205587
                                                      2608.000000       0.323957
                                                       933.900000       0.481142
                                                       360.000000       0.675917
                                                       147.000000       0.828945
                                                        62.880000       0.848113
                                                        27.600000       0.490247
                                                        11.080000      -0.171054
                                                         5.075000      -0.637022
                                                         2.278000      -0.461597
                                                         0.777500       0.159136
                                                         0.352700       0.220525
                                                         0.143100       0.047206

                          1       6    6s           834900.000000       0.000000
                                                    125000.000000       0.000000
                                                     28430.000000       0.000000
                                                      8033.000000       0.000000
                                                      2608.000000       0.000000
                                                       933.900000       0.000000
                                                       360.000000       0.000000
                                                       147.000000       0.000000
                                                        62.880000       0.000000
                                                        27.600000       0.000000
                                                        11.080000       0.000000
                                                         5.075000       0.000000
                                                         2.278000       0.000000
                                                         0.777500       0.000000
                                                         0.352700       0.000000
                                                         0.143100       0.165821

                          2       1    1s                0.051900       0.077497

                          3       1    1px            1703.000000       7.392180
                                                       403.600000      10.479622
                                                       130.300000      13.388240
                                                        49.050000      14.702578
                                                        20.260000      12.800709
                                                         8.787000       7.869884
                                                         3.919000       2.921669
                                                         1.765000       0.424220
                                                         0.720700       0.010214
                                                         0.283900       0.000346
                                                         0.106000       0.000029
                          3       1    1py            1703.000000       7.392180
                                                       403.600000      10.479622
                                                       130.300000      13.388240
                                                        49.050000      14.702578
                                                        20.260000      12.800709
                                                         8.787000       7.869884
                                                         3.919000       2.921669
                                                         1.765000       0.424220
                                                         0.720700       0.010214
                                                         0.283900       0.000346
                                                         0.106000       0.000029
                          3       1    1pz            1703.000000       7.392180
                                                       403.600000      10.479622
                                                       130.300000      13.388240
                                                        49.050000      14.702578
                                                        20.260000      12.800709
                                                         8.787000       7.869884
                                                         3.919000       2.921669
                                                         1.765000       0.424220
                                                         0.720700       0.010214
                                                         0.283900       0.000346
                                                         0.106000       0.000029

                          3       2    2px            1703.000000       0.000000
                                                       403.600000       0.000000
                                                       130.300000       0.000000
                                                        49.050000       0.000000
                                                        20.260000       0.000000
                                                         8.787000       0.000000
                                                         3.919000       0.000000
                                                         1.765000       0.000000
                                                         0.720700       0.946528
                                                         0.283900       0.000000
                                                         0.106000       0.000000
                          3       2    2py            1703.000000       0.000000
                                                       403.600000       0.000000
                                                       130.300000       0.000000
                                                        49.050000       0.000000
                                                        20.260000       0.000000
                                                         8.787000       0.000000
                                                         3.919000       0.000000
                                                         1.765000       0.000000
                                                         0.720700       0.946528
                                                         0.283900       0.000000
                                                         0.106000       0.000000
                          3       2    2pz            1703.000000       0.000000
                                                       403.600000       0.000000
                                                       130.300000       0.000000
                                                        49.050000       0.000000
                                                        20.260000       0.000000
                                                         8.787000       0.000000
                                                         3.919000       0.000000
                                                         1.765000       0.000000
                                                         0.720700       0.946528
                                                         0.283900       0.000000
                                                         0.106000       0.000000

                          3       3    3px            1703.000000      -2.000184
                                                       403.600000      -2.819822
                                                       130.300000      -3.661076
                                                        49.050000      -4.056901
                                                        20.260000      -3.684614
                                                         8.787000      -2.305879
                                                         3.919000      -0.962459
                                                         1.765000       0.111243
                                                         0.720700       0.364655
                                                         0.283900       0.149841
                                                         0.106000       0.019589
                          3       3    3py            1703.000000      -2.000184
                                                       403.600000      -2.819822
                                                       130.300000      -3.661076
                                                        49.050000      -4.056901
                                                        20.260000      -3.684614
                                                         8.787000      -2.305879
                                                         3.919000      -0.962459
                                                         1.765000       0.111243
                                                         0.720700       0.364655
                                                         0.283900       0.149841
                                                         0.106000       0.019589
                          3       3    3pz            1703.000000      -2.000184
                                                       403.600000      -2.819822
                                                       130.300000      -3.661076
                                                        49.050000      -4.056901
                                                        20.260000      -3.684614
                                                         8.787000      -2.305879
                                                         3.919000      -0.962459
                                                         1.765000       0.111243
                                                         0.720700       0.364655
                                                         0.283900       0.149841
                                                         0.106000       0.019589

                          3       4    4px            1703.000000       0.000000
                                                       403.600000       0.000000
                                                       130.300000       0.000000
                                                        49.050000       0.000000
                                                        20.260000       0.000000
                                                         8.787000       0.000000
                                                         3.919000       0.000000
                                                         1.765000       0.000000
                                                         0.720700       0.000000
                                                         0.283900       0.295391
                                                         0.106000       0.000000
                          3       4    4py            1703.000000       0.000000
                                                       403.600000       0.000000
                                                       130.300000       0.000000
                                                        49.050000       0.000000
                                                        20.260000       0.000000
                                                         8.787000       0.000000
                                                         3.919000       0.000000
                                                         1.765000       0.000000
                                                         0.720700       0.000000
                                                         0.283900       0.295391
                                                         0.106000       0.000000
                          3       4    4pz            1703.000000       0.000000
                                                       403.600000       0.000000
                                                       130.300000       0.000000
                                                        49.050000       0.000000
                                                        20.260000       0.000000
                                                         8.787000       0.000000
                                                         3.919000       0.000000
                                                         1.765000       0.000000
                                                         0.720700       0.000000
                                                         0.283900       0.295391
                                                         0.106000       0.000000

                          3       5    5px            1703.000000       0.000000
                                                       403.600000       0.000000
                                                       130.300000       0.000000
                                                        49.050000       0.000000
                                                        20.260000       0.000000
                                                         8.787000       0.000000
                                                         3.919000       0.000000
                                                         1.765000       0.000000
                                                         0.720700       0.000000
                                                         0.283900       0.000000
                                                         0.106000       0.086213
                          3       5    5py            1703.000000       0.000000
                                                       403.600000       0.000000
                                                       130.300000       0.000000
                                                        49.050000       0.000000
                                                        20.260000       0.000000
                                                         8.787000       0.000000
                                                         3.919000       0.000000
                                                         1.765000       0.000000
                                                         0.720700       0.000000
                                                         0.283900       0.000000
                                                         0.106000       0.086213
                          3       5    5pz            1703.000000       0.000000
                                                       403.600000       0.000000
                                                       130.300000       0.000000
                                                        49.050000       0.000000
                                                        20.260000       0.000000
                                                         8.787000       0.000000
                                                         3.919000       0.000000
                                                         1.765000       0.000000
                                                         0.720700       0.000000
                                                         0.283900       0.000000
                                                         0.106000       0.086213

                          4       1    1px               0.037600       0.023601
                          4       1    1py               0.037600       0.023601
                          4       1    1pz               0.037600       0.023601

                          5       1    1dx2              1.551000       3.547971
                                                         0.628000       0.000000
                                                         0.254000       0.000000
                          5       1    1dxy              1.551000       6.145267
                                                         0.628000       0.000000
                                                         0.254000       0.000000
                          5       1    1dxz              1.551000       6.145267
                                                         0.628000       0.000000
                                                         0.254000       0.000000
                          5       1    1dy2              1.551000       3.547971
                                                         0.628000       0.000000
                                                         0.254000       0.000000
                          5       1    1dyz              1.551000       6.145267
                                                         0.628000       0.000000
                                                         0.254000       0.000000
                          5       1    1dz2              1.551000       3.547971
                                                         0.628000       0.000000
                                                         0.254000       0.000000

                          5       2    2dx2              1.551000       0.000000
                                                         0.628000       0.729187
                                                         0.254000       0.000000
                          5       2    2dxy              1.551000       0.000000
                                                         0.628000       1.262989
                                                         0.254000       0.000000
                          5       2    2dxz              1.551000       0.000000
                                                         0.628000       1.262989
                                                         0.254000       0.000000
                          5       2    2dy2              1.551000       0.000000
                                                         0.628000       0.729187
                                                         0.254000       0.000000
                          5       2    2dyz              1.551000       0.000000
                                                         0.628000       1.262989
                                                         0.254000       0.000000
                          5       2    2dz2              1.551000       0.000000
                                                         0.628000       0.729187
                                                         0.254000       0.000000

                          5       3    3dx2              1.551000       0.000000
                                                         0.628000       0.000000
                                                         0.254000       0.149578
                          5       3    3dxy              1.551000       0.000000
                                                         0.628000       0.000000
                                                         0.254000       0.259077
                          5       3    3dxz              1.551000       0.000000
                                                         0.628000       0.000000
                                                         0.254000       0.259077
                          5       3    3dy2              1.551000       0.000000
                                                         0.628000       0.000000
                                                         0.254000       0.149578
                          5       3    3dyz              1.551000       0.000000
                                                         0.628000       0.000000
                                                         0.254000       0.259077
                          5       3    3dz2              1.551000       0.000000
                                                         0.628000       0.000000
                                                         0.254000       0.149578

                          6       1    1dx2              0.095200       0.026855
                          6       1    1dxy              0.095200       0.046514
                          6       1    1dxz              0.095200       0.046514
                          6       1    1dy2              0.095200       0.026855
                          6       1    1dyz              0.095200       0.046514
                          6       1    1dz2              0.095200       0.026855

                          7       1    1fx3              1.089000       1.783476
                                                         0.423000       0.000000
                          7       1    1fx2y             1.089000       3.987973
                                                         0.423000       0.000000
                          7       1    1fx2z             1.089000       3.987973
                                                         0.423000       0.000000
                          7       1    1fxy2             1.089000       3.987973
                                                         0.423000       0.000000
                          7       1    1fxyz             1.089000       6.907371
                                                         0.423000       0.000000
                          7       1    1fxz2             1.089000       3.987973
                                                         0.423000       0.000000
                          7       1    1fy3              1.089000       1.783476
                                                         0.423000       0.000000
                          7       1    1fy2z             1.089000       3.987973
                                                         0.423000       0.000000
                          7       1    1fyz2             1.089000       3.987973
                                                         0.423000       0.000000
                          7       1    1fz3              1.089000       1.783476
                                                         0.423000       0.000000

                          7       2    2fx3              1.089000       0.000000
                                                         0.423000       0.212432
                          7       2    2fx2y             1.089000       0.000000
                                                         0.423000       0.475013
                          7       2    2fx2z             1.089000       0.000000
                                                         0.423000       0.475013
                          7       2    2fxy2             1.089000       0.000000
                                                         0.423000       0.475013
                          7       2    2fxyz             1.089000       0.000000
                                                         0.423000       0.822746
                          7       2    2fxz2             1.089000       0.000000
                                                         0.423000       0.475013
                          7       2    2fy3              1.089000       0.000000
                                                         0.423000       0.212432
                          7       2    2fy2z             1.089000       0.000000
                                                         0.423000       0.475013
                          7       2    2fyz2             1.089000       0.000000
                                                         0.423000       0.475013
                          7       2    2fz3              1.089000       0.000000
                                                         0.423000       0.212432

                          8       1    1fx3              0.217000       0.047314
                          8       1    1fx2y             0.217000       0.105797
                          8       1    1fx2z             0.217000       0.105797
                          8       1    1fxy2             0.217000       0.105797
                          8       1    1fxyz             0.217000       0.183246
                          8       1    1fxz2             0.217000       0.105797
                          8       1    1fy3              0.217000       0.047314
                          8       1    1fy2z             0.217000       0.105797
                          8       1    1fyz2             0.217000       0.105797
                          8       1    1fz3              0.217000       0.047314

                          9       1    1gx4              0.827000       0.660048
                          9       1    1gx3y             0.827000       1.746323
                          9       1    1gx3z             0.827000       1.746323
                          9       1    1gx2y2            0.827000       2.254493
                          9       1    1gx2yz            0.827000       3.904897
                          9       1    1gx2z2            0.827000       2.254493
                          9       1    1gxy3             0.827000       1.746323
                          9       1    1gxy2z            0.827000       3.904897
                          9       1    1gxyz2            0.827000       3.904897
                          9       1    1gxz3             0.827000       1.746323
                          9       1    1gy4              0.827000       0.660048
                          9       1    1gy3z             0.827000       1.746323
                          9       1    1gy2z2            0.827000       2.254493
                          9       1    1gyz3             0.827000       1.746323
                          9       1    1gz4              0.827000       0.660048

                         10       1    1gx4              0.378000       0.076655
                         10       1    1gx3y             0.378000       0.202809
                         10       1    1gx3z             0.378000       0.202809
                         10       1    1gx2y2            0.378000       0.261825
                         10       1    1gx2yz            0.378000       0.453494
                         10       1    1gx2z2            0.378000       0.261825
                         10       1    1gxy3             0.378000       0.202809
                         10       1    1gxy2z            0.378000       0.453494
                         10       1    1gxyz2            0.378000       0.453494
                         10       1    1gxz3             0.378000       0.202809
                         10       1    1gy4              0.378000       0.076655
                         10       1    1gy3z             0.378000       0.202809
                         10       1    1gy2z2            0.378000       0.261825
                         10       1    1gyz3             0.378000       0.202809
                         10       1    1gz4              0.378000       0.076655

       Atomic covalent radius [Angstrom]:                                  0.990

       Atomic van der Waals radius [Angstrom]:                             1.750

     The atoms of this atomic kind are PAW atoms (GAPW):
       Hard Gaussian function radius:                                      1.512
       Rho0 radius:                                                        1.512
       Maximum GTO radius used for PAW projector construction:            24.566

     GAPW Soft Basis Set                                        aug-cc-pVQZ_soft

       Number of orbital shell sets:                                          10
       Number of orbital shells:                                              22
       Number of primitive Cartesian functions:                               20
       Number of Cartesian basis functions:                                  109
       Number of spherical basis functions:                                   84
       Norm type:                                                              2

       Normalised Cartesian orbitals:

                        Set   Shell   Orbital            Exponent    Coefficient

                          1       1    1s                2.278000       0.002896
                                                         0.777500      -0.000502
                                                         0.352700       0.000139
                                                         0.143100      -0.000020

                          1       2    2s                2.278000       0.583593
                                                         0.777500       0.025180
                                                         0.352700      -0.002176
                                                         0.143100       0.000316

                          1       3    3s                2.278000       0.000000
                                                         0.777500       0.590113
                                                         0.352700       0.000000
                                                         0.143100       0.000000

                          1       4    4s                2.278000       0.000000
                                                         0.777500       0.000000
                                                         0.352700       0.326185
                                                         0.143100       0.000000

                          1       5    5s                2.278000      -0.461597
                                                         0.777500       0.159136
                                                         0.352700       0.220525
                                                         0.143100       0.047206

                          1       6    6s                2.278000       0.000000
                                                         0.777500       0.000000
                                                         0.352700       0.000000
                                                         0.143100       0.165821

                          2       1    1s                0.051900       0.077497

                          3       1    1px               3.919000       2.921669
                                                         1.765000       0.424220
                                                         0.720700       0.010214
                                                         0.283900       0.000346
                                                         0.106000       0.000029
                          3       1    1py               3.919000       2.921669
                                                         1.765000       0.424220
                                                         0.720700       0.010214
                                                         0.283900       0.000346
                                                         0.106000       0.000029
                          3       1    1pz               3.919000       2.921669
                                                         1.765000       0.424220
                                                         0.720700       0.010214
                                                         0.283900       0.000346
                                                         0.106000       0.000029

                          3       2    2px               3.919000       0.000000
                                                         1.765000       0.000000
                                                         0.720700       0.946528
                                                         0.283900       0.000000
                                                         0.106000       0.000000
                          3       2    2py               3.919000       0.000000
                                                         1.765000       0.000000
                                                         0.720700       0.946528
                                                         0.283900       0.000000
                                                         0.106000       0.000000
                          3       2    2pz               3.919000       0.000000
                                                         1.765000       0.000000
                                                         0.720700       0.946528
                                                         0.283900       0.000000
                                                         0.106000       0.000000

                          3       3    3px               3.919000      -0.962459
                                                         1.765000       0.111243
                                                         0.720700       0.364655
                                                         0.283900       0.149841
                                                         0.106000       0.019589
                          3       3    3py               3.919000      -0.962459
                                                         1.765000       0.111243
                                                         0.720700       0.364655
                                                         0.283900       0.149841
                                                         0.106000       0.019589
                          3       3    3pz               3.919000      -0.962459
                                                         1.765000       0.111243
                                                         0.720700       0.364655
                                                         0.283900       0.149841
                                                         0.106000       0.019589

                          3       4    4px               3.919000       0.000000
                                                         1.765000       0.000000
                                                         0.720700       0.000000
                                                         0.283900       0.295391
                                                         0.106000       0.000000
                          3       4    4py               3.919000       0.000000
                                                         1.765000       0.000000
                                                         0.720700       0.000000
                                                         0.283900       0.295391
                                                         0.106000       0.000000
                          3       4    4pz               3.919000       0.000000
                                                         1.765000       0.000000
                                                         0.720700       0.000000
                                                         0.283900       0.295391
                                                         0.106000       0.000000

                          3       5    5px               3.919000       0.000000
                                                         1.765000       0.000000
                                                         0.720700       0.000000
                                                         0.283900       0.000000
                                                         0.106000       0.086213
                          3       5    5py               3.919000       0.000000
                                                         1.765000       0.000000
                                                         0.720700       0.000000
                                                         0.283900       0.000000
                                                         0.106000       0.086213
                          3       5    5pz               3.919000       0.000000
                                                         1.765000       0.000000
                                                         0.720700       0.000000
                                                         0.283900       0.000000
                                                         0.106000       0.086213

                          4       1    1px               0.037600       0.023601
                          4       1    1py               0.037600       0.023601
                          4       1    1pz               0.037600       0.023601

                          5       1    1dx2              1.551000       3.547971
                                                         0.628000       0.000000
                                                         0.254000       0.000000
                          5       1    1dxy              1.551000       6.145267
                                                         0.628000       0.000000
                                                         0.254000       0.000000
                          5       1    1dxz              1.551000       6.145267
                                                         0.628000       0.000000
                                                         0.254000       0.000000
                          5       1    1dy2              1.551000       3.547971
                                                         0.628000       0.000000
                                                         0.254000       0.000000
                          5       1    1dyz              1.551000       6.145267
                                                         0.628000       0.000000
                                                         0.254000       0.000000
                          5       1    1dz2              1.551000       3.547971
                                                         0.628000       0.000000
                                                         0.254000       0.000000

                          5       2    2dx2              1.551000       0.000000
                                                         0.628000       0.729187
                                                         0.254000       0.000000
                          5       2    2dxy              1.551000       0.000000
                                                         0.628000       1.262989
                                                         0.254000       0.000000
                          5       2    2dxz              1.551000       0.000000
                                                         0.628000       1.262989
                                                         0.254000       0.000000
                          5       2    2dy2              1.551000       0.000000
                                                         0.628000       0.729187
                                                         0.254000       0.000000
                          5       2    2dyz              1.551000       0.000000
                                                         0.628000       1.262989
                                                         0.254000       0.000000
                          5       2    2dz2              1.551000       0.000000
                                                         0.628000       0.729187
                                                         0.254000       0.000000

                          5       3    3dx2              1.551000       0.000000
                                                         0.628000       0.000000
                                                         0.254000       0.149578
                          5       3    3dxy              1.551000       0.000000
                                                         0.628000       0.000000
                                                         0.254000       0.259077
                          5       3    3dxz              1.551000       0.000000
                                                         0.628000       0.000000
                                                         0.254000       0.259077
                          5       3    3dy2              1.551000       0.000000
                                                         0.628000       0.000000
                                                         0.254000       0.149578
                          5       3    3dyz              1.551000       0.000000
                                                         0.628000       0.000000
                                                         0.254000       0.259077
                          5       3    3dz2              1.551000       0.000000
                                                         0.628000       0.000000
                                                         0.254000       0.149578

                          6       1    1dx2              0.095200       0.026855
                          6       1    1dxy              0.095200       0.046514
                          6       1    1dxz              0.095200       0.046514
                          6       1    1dy2              0.095200       0.026855
                          6       1    1dyz              0.095200       0.046514
                          6       1    1dz2              0.095200       0.026855

                          7       1    1fx3              1.089000       1.783476
                                                         0.423000       0.000000
                          7       1    1fx2y             1.089000       3.987973
                                                         0.423000       0.000000
                          7       1    1fx2z             1.089000       3.987973
                                                         0.423000       0.000000
                          7       1    1fxy2             1.089000       3.987973
                                                         0.423000       0.000000
                          7       1    1fxyz             1.089000       6.907371
                                                         0.423000       0.000000
                          7       1    1fxz2             1.089000       3.987973
                                                         0.423000       0.000000
                          7       1    1fy3              1.089000       1.783476
                                                         0.423000       0.000000
                          7       1    1fy2z             1.089000       3.987973
                                                         0.423000       0.000000
                          7       1    1fyz2             1.089000       3.987973
                                                         0.423000       0.000000
                          7       1    1fz3              1.089000       1.783476
                                                         0.423000       0.000000

                          7       2    2fx3              1.089000       0.000000
                                                         0.423000       0.212432
                          7       2    2fx2y             1.089000       0.000000
                                                         0.423000       0.475013
                          7       2    2fx2z             1.089000       0.000000
                                                         0.423000       0.475013
                          7       2    2fxy2             1.089000       0.000000
                                                         0.423000       0.475013
                          7       2    2fxyz             1.089000       0.000000
                                                         0.423000       0.822746
                          7       2    2fxz2             1.089000       0.000000
                                                         0.423000       0.475013
                          7       2    2fy3              1.089000       0.000000
                                                         0.423000       0.212432
                          7       2    2fy2z             1.089000       0.000000
                                                         0.423000       0.475013
                          7       2    2fyz2             1.089000       0.000000
                                                         0.423000       0.475013
                          7       2    2fz3              1.089000       0.000000
                                                         0.423000       0.212432

                          8       1    1fx3              0.217000       0.047314
                          8       1    1fx2y             0.217000       0.105797
                          8       1    1fx2z             0.217000       0.105797
                          8       1    1fxy2             0.217000       0.105797
                          8       1    1fxyz             0.217000       0.183246
                          8       1    1fxz2             0.217000       0.105797
                          8       1    1fy3              0.217000       0.047314
                          8       1    1fy2z             0.217000       0.105797
                          8       1    1fyz2             0.217000       0.105797
                          8       1    1fz3              0.217000       0.047314

                          9       1    1gx4              0.827000       0.660048
                          9       1    1gx3y             0.827000       1.746323
                          9       1    1gx3z             0.827000       1.746323
                          9       1    1gx2y2            0.827000       2.254493
                          9       1    1gx2yz            0.827000       3.904897
                          9       1    1gx2z2            0.827000       2.254493
                          9       1    1gxy3             0.827000       1.746323
                          9       1    1gxy2z            0.827000       3.904897
                          9       1    1gxyz2            0.827000       3.904897
                          9       1    1gxz3             0.827000       1.746323
                          9       1    1gy4              0.827000       0.660048
                          9       1    1gy3z             0.827000       1.746323
                          9       1    1gy2z2            0.827000       2.254493
                          9       1    1gyz3             0.827000       1.746323
                          9       1    1gz4              0.827000       0.660048

                         10       1    1gx4              0.378000       0.076655
                         10       1    1gx3y             0.378000       0.202809
                         10       1    1gx3z             0.378000       0.202809
                         10       1    1gx2y2            0.378000       0.261825
                         10       1    1gx2yz            0.378000       0.453494
                         10       1    1gx2z2            0.378000       0.261825
                         10       1    1gxy3             0.378000       0.202809
                         10       1    1gxy2z            0.378000       0.453494
                         10       1    1gxyz2            0.378000       0.453494
                         10       1    1gxz3             0.378000       0.202809
                         10       1    1gy4              0.378000       0.076655
                         10       1    1gy3z             0.378000       0.202809
                         10       1    1gy2z2            0.378000       0.261825
                         10       1    1gyz3             0.378000       0.202809
                         10       1    1gz4              0.378000       0.076655

     AE Potential information for                                            ALL

       Description:                                       All-electron potential
                                          Krack, Parrinello, PCCP 2, 2105 (2000)

       Gaussian exponent of the core charge distribution:               2.974420
       Electronic configuration (s p d ...):                           6  11   0

  2. Atomic kind: H                                     Number of atoms:       1

     Orbital Basis Set                                               aug-cc-pVQZ

       Number of orbital shell sets:                                           8
       Number of orbital shells:                                              14
       Number of primitive Cartesian functions:                               16
       Number of Cartesian basis functions:                                   55
       Number of spherical basis functions:                                   46
       Norm type:                                                              2

       Normalised Cartesian orbitals:

                        Set   Shell   Orbital            Exponent    Coefficient

                          1       1    1s               82.640000       0.000000
                                                        12.410000       0.000000
                                                         2.824000       0.000000
                                                         0.797700       0.601575
                                                         0.258100       0.000000
                                                         0.089890       0.000000

                          1       2    2s               82.640000       0.000000
                                                        12.410000       0.000000
                                                         2.824000       0.000000
                                                         0.797700       0.000000
                                                         0.258100       0.258078
                                                         0.089890       0.000000

                          1       3    3s               82.640000       0.039186
                                                        12.410000       0.072302
                                                         2.824000       0.117344
                                                         0.797700       0.154530
                                                         0.258100       0.128360
                                                         0.089890       0.034648

                          1       4    4s               82.640000       0.000000
                                                        12.410000       0.000000
                                                         2.824000       0.000000
                                                         0.797700       0.000000
                                                         0.258100       0.000000
                                                         0.089890       0.117002

                          2       1    1s                0.023630       0.042954

                          3       1    1px               2.292000       4.019836
                                                         0.838000       0.000000
                                                         0.292000       0.000000
                          3       1    1py               2.292000       4.019836
                                                         0.838000       0.000000
                                                         0.292000       0.000000
                          3       1    1pz               2.292000       4.019836
                                                         0.838000       0.000000
                                                         0.292000       0.000000

                          3       2    2px               2.292000       0.000000
                                                         0.838000       1.142865
                                                         0.292000       0.000000
                          3       2    2py               2.292000       0.000000
                                                         0.838000       1.142865
                                                         0.292000       0.000000
                          3       2    2pz               2.292000       0.000000
                                                         0.838000       1.142865
                                                         0.292000       0.000000

                          3       3    3px               2.292000       0.000000
                                                         0.838000       0.000000
                                                         0.292000       0.305963
                          3       3    3py               2.292000       0.000000
                                                         0.838000       0.000000
                                                         0.292000       0.305963
                          3       3    3pz               2.292000       0.000000
                                                         0.838000       0.000000
                                                         0.292000       0.305963

                          4       1    1px               0.084800       0.065228
                          4       1    1py               0.084800       0.065228
                          4       1    1pz               0.084800       0.065228

                          5       1    1dx2              2.062000       5.840024
                                                         0.662000       0.000000
                          5       1    1dxy              2.062000      10.115218
                                                         0.662000       0.000000
                          5       1    1dxz              2.062000      10.115218
                                                         0.662000       0.000000
                          5       1    1dy2              2.062000       5.840024
                                                         0.662000       0.000000
                          5       1    1dyz              2.062000      10.115218
                                                         0.662000       0.000000
                          5       1    1dz2              2.062000       5.840024
                                                         0.662000       0.000000

                          5       2    2dx2              2.062000       0.000000
                                                         0.662000       0.799670
                          5       2    2dxy              2.062000       0.000000
                                                         0.662000       1.385069
                          5       2    2dxz              2.062000       0.000000
                                                         0.662000       1.385069
                          5       2    2dy2              2.062000       0.000000
                                                         0.662000       0.799670
                          5       2    2dyz              2.062000       0.000000
                                                         0.662000       1.385069
                          5       2    2dz2              2.062000       0.000000
                                                         0.662000       0.799670

                          6       1    1dx2              0.190000       0.089997
                          6       1    1dxy              0.190000       0.155879
                          6       1    1dxz              0.190000       0.155879
                          6       1    1dy2              0.190000       0.089997
                          6       1    1dyz              0.190000       0.155879
                          6       1    1dz2              0.190000       0.089997

                          7       1    1fx3              1.397000       3.123535
                          7       1    1fx2y             1.397000       6.984436
                          7       1    1fx2z             1.397000       6.984436
                          7       1    1fxy2             1.397000       6.984436
                          7       1    1fxyz             1.397000      12.097399
                          7       1    1fxz2             1.397000       6.984436
                          7       1    1fy3              1.397000       3.123535
                          7       1    1fy2z             1.397000       6.984436
                          7       1    1fyz2             1.397000       6.984436
                          7       1    1fz3              1.397000       3.123535

                          8       1    1fx3              0.360000       0.147787
                          8       1    1fx2y             0.360000       0.330461
                          8       1    1fx2z             0.360000       0.330461
                          8       1    1fxy2             0.360000       0.330461
                          8       1    1fxyz             0.360000       0.572375
                          8       1    1fxz2             0.360000       0.330461
                          8       1    1fy3              0.360000       0.147787
                          8       1    1fy2z             0.360000       0.330461
                          8       1    1fyz2             0.360000       0.330461
                          8       1    1fz3              0.360000       0.147787

       Atomic covalent radius [Angstrom]:                                  0.320

       Atomic van der Waals radius [Angstrom]:                             1.090

     The atoms of this atomic kind are PAW atoms (GAPW):
       Hard Gaussian function radius:                                      1.200
       Rho0 radius:                                                        1.200
[...]
 flops     9 x     9 x    84             28712880       0.0%    100.0%      0.0%
 flops    84 x    84 x     9             39118464       0.0%    100.0%      0.0%
 flops    46 x     9 x    46             43267968       0.0%    100.0%      0.0%
 flops    46 x     9 x    84             74629296       0.0%    100.0%      0.0%
 flops    84 x     9 x    46             74629296       0.0%    100.0%      0.0%
 flops    84 x     9 x    84            144281088       0.0%    100.0%      0.0%
 flops inhomo. stacks                           0       0.0%      0.0%      0.0%
 flops total                       492.538148E+06       0.0%    100.0%      0.0%
 flops max/rank                    374.160484E+06       0.0%    100.0%      0.0%
 matmuls inhomo. stacks                         0       0.0%      0.0%      0.0%
 matmuls total                              10103       0.0%    100.0%      0.0%
 number of processed stacks                  9303       0.0%    100.0%      0.0%
 average stack size                                     0.0       1.1       0.0
 marketing flops                   522.757952E+06
 -------------------------------------------------------------------------------
 # multiplications                           1813
 max memory usage/rank               1.726325E+09
 # max total images/rank                        2
 # max 3D layers                                1
 # MPI messages exchanged                 6729856
 MPI messages size (bytes):
  total size                         2.300610E+09
  min size                           0.000000E+00
  max size                          87.360000E+03
  average size                     341.851318E+00
 MPI breakdown and total messages size (bytes):
             size <=      128             6653062                        0
       128 < size <=     8192               38575                159025464
      8192 < size <=    32768                7634                 75544400
     32768 < size <=   131072               30585               2066040480
    131072 < size <=  4194304                   0                        0
   4194304 < size <= 16777216                   0                        0
  16777216 < size                               0                        0
 -------------------------------------------------------------------------------

 *** WARNING in dbcsr_mm.F:291 :: Using a non-square number of MPI ranks ***
 *** might lead to poor performance. Used ranks: 128 Suggested: 121 256  ***

 -------------------------------------------------------------------------------
 -                                                                             -
 -                      DBCSR MESSAGE PASSING PERFORMANCE                      -
 -                                                                             -
 -------------------------------------------------------------------------------
 ROUTINE             CALLS      AVE VOLUME [Bytes]
 MP_Bcast               22                     12.
 MP_Allreduce         7823                      8.
 MP_Alltoall         28776                  39579.
 MP_ISend           115062                   1690.
 MP_IRecv           112376                    507.
 -------------------------------------------------------------------------------

 -------------------------------------------------------------------------------
 -                                                                             -
 -                                DBM STATISTICS                               -
 -                                                                             -
 -------------------------------------------------------------------------------
    M  x    N  x    K                                          COUNT     PERCENT
 -------------------------------------------------------------------------------

 -------------------------------------------------------------------------------
 -                                                                             -
 -                                GRID STATISTICS                              -
 -                                                                             -
 -------------------------------------------------------------------------------
 LP    KERNEL             BACKEND                              COUNT     PERCENT
 2     collocate ortho    CPU                                  30770       8.90%
 3     collocate ortho    CPU                                  30770       8.90%
 2     integrate ortho    CPU                                  30227       8.74%
 3     integrate ortho    CPU                                  30227       8.74%
 1     collocate ortho    CPU                                  25500       7.37%
 2     collocate general  CPU                                  25344       7.33%
 1     integrate ortho    CPU                                  25050       7.24%
 2     integrate general  CPU                                  24832       7.18%
 4     collocate ortho    CPU                                  24310       7.03%
 4     integrate ortho    CPU                                  23881       6.90%
 5     collocate ortho    CPU                                  14450       4.18%
 5     integrate ortho    CPU                                  14195       4.10%
 0     collocate ortho    CPU                                  12750       3.69%
 0     integrate ortho    CPU                                  12525       3.62%
 6     collocate ortho    CPU                                   6970       2.02%
 6     integrate ortho    CPU                                   6847       1.98%
 7     collocate ortho    CPU                                   2720       0.79%
 7     integrate ortho    CPU                                   2672       0.77%
 8     collocate ortho    CPU                                    680       0.20%
 8     integrate ortho    CPU                                    668       0.19%
 0     collocate general  CPU                                    256       0.07%
 0     integrate general  CPU                                    256       0.07%
 -------------------------------------------------------------------------------

 MEMORY| Estimated peak process memory [MiB]                                1647

 -------------------------------------------------------------------------------
 ----                             MULTIGRID INFO                            ----
 -------------------------------------------------------------------------------
 count for grid        1:       22415505          cutoff [a.u.]          600.00
 count for grid        2:        3004488          cutoff [a.u.]          200.00
 count for grid        3:        2366415          cutoff [a.u.]           66.67
 count for grid        4:        1016482          cutoff [a.u.]           22.22
 count for grid        5:          98594          cutoff [a.u.]            7.41
 total gridlevel count  :       28901484

 -------------------------------------------------------------------------------
 -                                                                             -
 -                         MESSAGE PASSING PERFORMANCE                         -
 -                                                                             -
 -------------------------------------------------------------------------------

 ROUTINE             CALLS      AVE VOLUME [Bytes]
 MP_Group                6
 MP_Bcast             1075                 393713.
 MP_Allreduce         7570                  28357.
 MP_Sync              1624
 MP_Alltoall          4472               18813606.
 MP_SendRecv         64770                 127152.
 MP_ISendRecv       141859                 105053.
 MP_Wait            182112
 MP_comm_split          81
 MP_ISend            33810                 809408.
 MP_IRecv            36428                 751186.
 -------------------------------------------------------------------------------


 -------------------------------------------------------------------------------
 -                                                                             -
 -                           R E F E R E N C E S                               -
 -                                                                             -
 -------------------------------------------------------------------------------
 
 CP2K version 2024.1 (Development Version), the CP2K developers group (2024).
 CP2K is freely available from https://www.cp2k.org/ .

 Kuehne,Thomas D.; Iannuzzi,Marcella; Del Ben,Mauro;
 Rybkin,Vladimir V.; Seewald,Patrick; Stein,Frederick; Laino,Teodoro;
 Khaliullin,Rustam Z.; Schuett,Ole; Schiffmann,Florian; Golze,Dorothea;
 Wilhelm,Jan; Chulkov,Sergey; Bani-Hashemian,Mohammad Hossein;
 Weber,Valery; Borstnik,Urban; Taillefumier,Mathieu;
 Jakobovits,Alice Shoshana; Lazzaro,Alfio; Pabst,Hans; Mueller,Tiziano;
 Schade,Robert; Guidon,Manuel; Andermatt,Samuel; Holmberg,Nico;
 Schenter,Gregory K.; Hehn,Anna; Bussy,Augustin; Belleflamme,Fabian;
 Tabacchi,Gloria; Gloess,Andreas; Lass,Michael; Bethune,Iain;
 Mundy,Christopher J.; Plessl,Christian; Watkins,Matt;
 VandeVondele,Joost; Krack,Matthias; Hutter,Juerg. 
 The Journal of Chemical Physics, 152 (19), (2020). 
 CP2K: An electronic structure and molecular dynamics software package -
 Quickstep: Efficient and accurate electronic structure calculations.
 https://doi.org/10.1063/5.0007045

 Schuett, Ole; Messmer, Peter; Hutter, Juerg; VandeVondele, Joost. 
 Electronic Structure Calculations on Graphics Processing Units, John
 Wiley & Sons, Ltd, 173-190 (2016). 
 GPU-Accelerated Sparse Matrix-Matrix Multiplication for
 Linear Scaling Density Functional Theory.
 https://doi.org/10.1002/9781118670712.ch8

 Heinecke, A; Henry, G; Hutchinson, M; Pabst, H. 
 Proceedings of Intl. Supercomputing Conference, 981-991 (2016). 
 LIBXSMM: Accelerating Small Matrix Multiplications
 by Runtime Code Generation.
 https://doi.org/10.1109/SC.2016.83

 Borstnik, U; VandeVondele, J; Weber, V; Hutter, J. 
 PARALLEL COMPUTING, 40 (5-6), 47-58 (2014). 
 Sparse matrix multiplication: The distributed block-compressed sparse
 row library.
 https://doi.org/10.1016/j.parco.2014.03.012

 Hutter, J; Iannuzzi, M; Schiffmann, F; VandeVondele, J. 
 WIREs Comput Mol Sci., 4 (1), 15-25 (2014). 
 CP2K: atomistic simulations of condensed matter systems.
 https://doi.org/10.1002/wcms.1159

 Guidon, M; Hutter, J; VandeVondele, J. 
 JOURNAL OF CHEMICAL THEORY AND COMPUTATION, 5 (11), 3010-3021 (2009). 
 Robust Periodic Hartree-Fock Exchange for Large-Scale Simulations Using
 Gaussian Basis Sets.
 https://doi.org/10.1021/ct900494g

 Guidon, M; Schiffmann, F; Hutter, J; VandeVondele, J. 
 JOURNAL OF CHEMICAL PHYSICS, 128 (21), 214104 (2008). 
 Ab initio molecular dynamics using hybrid density functionals.
 https://doi.org/10.1063/1.2931945

 Frigo, M; Johnson, SG. 
 PROCEEDINGS OF THE IEEE, 93 (2), 216-231 (2005). 
 The design and implementation of FFTW3.
 https://doi.org/10.1109/JPROC.2004.840301

 Iannuzzi, M; Chassaing, T; Wallman, T; Hutter, J. 
 CHIMIA, 59 (7-8), 499-503 (2005). 
 Ground and excited state density functional calculations with the
 Gaussian and augmented-plane-wave method.
 https://doi.org/10.2533/000942905777676164

 VandeVondele, J; Hutter, J. 
 JOURNAL OF CHEMICAL PHYSICS, 118 (10), 4365-4369 (2003). 
 An efficient orbital transformation method for electronic structure
 calculations.
 https://doi.org/10.1063/1.1543154

 Martin,Richard L.. 
 The Journal of Chemical Physics, 118 (11), 4775-4777 (2003). 
 Natural transition orbitals.
 https://doi.org/10.1063/1.1558471

 Lippert, G; Hutter, J; Parrinello, M. 
 THEORETICAL CHEMISTRY ACCOUNTS, 103 (2), 124-140 (1999). 
 The Gaussian and augmented-plane-wave density functional method for ab
 initio molecular dynamics simulations.
 https://doi.org/10.1007/s002140050523

 Krack, M; Parrinello, M. 
 PHYSICAL CHEMISTRY CHEMICAL PHYSICS, 2 (10), 2105-2112 (2000). 
 All-electron ab-initio molecular dynamics.
 https://doi.org/10.1039/b001167n

 Martyna, GJ; Tuckerman, ME. 
 JOURNAL OF CHEMICAL PHYSICS, 110 (6), 2810-2821 (1999). 
 A reciprocal space based method for treating long range interactions in
 ab initio and force-field-based calculations in clusters.
 https://doi.org/10.1063/1.477923

 Perdew, JP; Burke, K; Ernzerhof, M. 
 PHYSICAL REVIEW LETTERS, 77 (18), 3865-3868 (1996). 
 Generalized gradient approximation made simple.
 https://doi.org/10.1103/PhysRevLett.77.3865


 -------------------------------------------------------------------------------
 -                                                                             -
 -                                T I M I N G                                  -
 -                                                                             -
 -------------------------------------------------------------------------------
 SUBROUTINE                       CALLS  ASD         SELF TIME        TOTAL TIME
                                MAXIMUM       AVERAGE  MAXIMUM  AVERAGE  MAXIMUM
 CP2K                                 1  1.0     5.26     6.23 10591.91 10592.00
 qs_energies                          1  2.0     0.02     0.08 10530.66 10530.72
 qs_energies_properties               1  3.0     0.00     0.01  8818.55  8818.61
 tddfpt                               1  4.0     0.01     0.08  8818.55  8818.61
 tddfpt_soc_energies                  1  5.0     0.00     0.01  8779.99  8780.06
 tddfpt_energies                      2  6.0     0.00     0.04  8697.75  8697.94
 tddfpt_davidson_solver               4  7.0     0.03     0.11  7782.22  7782.29
 tddfpt_compute_Aop_evects           14  8.0     0.01     0.06  7001.10  7001.38
 fhxc_kernel                         14  9.0     0.02     0.08  4332.53  4332.82
 mp_waitall_1                    348740 14.3  3118.62  3156.78  3118.62  3156.78
 tddfpt_apply_hfx                    14  9.0     0.00     0.03  2371.88  2372.01
 qs_rho_update_rho_low              170  9.2     0.01     0.06  2093.74  2094.57
 calculate_rho_elec                 170 10.2     0.36     0.70  2007.92  2009.80
 density_rs2pw                      170 11.2     0.02     0.06  1978.35  1980.69
 integrate_four_center              307 10.8     0.14     0.21  1932.93  1936.08
 integrate_v_rspace                 167  9.8     0.01     0.03  1851.64  1855.24
 potential_pw2rs                    167 10.8     0.04     0.08  1800.83  1810.39
 cp_dbcsr_sm_fm_multiply            886  9.5     0.01     0.02  1763.76  1777.54
 transfer_rs2pw                     950 12.1     0.01     0.02  1744.87  1754.52
 scf_env_do_scf                       1  3.0     0.00     0.02  1682.57  1682.62
 transfer_pw2rs                     933 11.8     0.01     0.06  1668.65  1676.29
 tddft_hfx_matrix                   280 10.0     0.01     0.03  1646.36  1649.58
 mp_sendrecv_dv                   64770 14.2  1471.15  1482.74  1471.15  1482.74
 dbcsr_complete_redistribute       2874 11.5     0.07     0.14  1435.50  1466.44
 scf_env_do_scf_inner_loop           27  4.0     0.01     0.06  1409.44  1409.51
 copy_dbcsr_to_fm                   962 10.4     0.01     0.06  1026.35  1040.20
 transfer_pw2rs_70                  167 12.8     4.49     7.63   997.32  1028.78
 dbcsr_multiply_generic            1813 10.9     0.07     0.27   939.35   961.95
 integrate_four_center_getP         307 11.8     0.04     0.07   915.57   918.30
 transfer_rs2pw_70                  170 13.2     2.88     7.77   896.93   917.74
 tddfpt_print_nto_analysis            2  7.0     0.02     0.07   817.85   818.19
 integrate_four_center_dist_KS      307 11.8     0.04     0.07   815.14   817.18
 pw_transfer                       3736 12.1     0.31     0.43   792.04   804.33
 fft_wrap_pw1pw2                   3443 13.2     0.04     0.09   790.77   802.91
 cp_fm_syevd                         81  9.2     0.01     0.04   781.01   782.21
 fft3d_ps                          3443 15.2    78.25    84.84   748.71   763.12
 qs_ks_update_qs_env                 29  5.0     0.00     0.01   718.35   719.31
 rebuild_ks_matrix                   27  6.0     0.00     0.04   714.76   715.71
 qs_ks_build_kohn_sham_matrix        27  7.0     0.03     0.08   714.76   715.71
 copy_fm_to_dbcsr                  1908 10.6     0.01     0.03   672.34   703.02
 mp_alltoall_d11v                 11941 12.7   632.38   678.58   632.38   678.58
 cp_fm_redistribute_end              81 10.2   362.06   671.02   369.66   674.09
 cp_fm_geeig                         20  8.0     0.01     0.05   622.48   623.03
 cp_fm_syevd_base                    81 10.2   299.20   605.00   299.20   605.00
 fft_wrap_pw1pw2_600               2094 14.3     7.75     9.07   548.80   561.27
 mp_alltoall_z22v                  3443 17.2   545.55   560.57   545.55   560.57
 qs_scf_new_mos                      27  5.0     0.00     0.00   535.42   535.68
 qs_scf_loop_do_ot                   27  6.0     0.00     0.00   535.42   535.68
 mp_sync                           1624 12.5   467.19   531.60   467.19   531.60
 mp_alltoall_i11v                  9678 12.5   518.80   520.59   518.80   520.59
 ot_scf_mini                         27  7.0     0.00     0.01   517.66   517.95
 tddfpt_orthonormalize_psi1_psi      16  7.9     0.01     0.03   511.55   514.53
 mp_sum_l                          7541 11.3   432.94   448.40   432.94   448.40
 cp_dbcsr_sm_fm_multiply_core       886 10.5     0.00     0.01   358.27   379.01
 mp_waitany                       33810 13.8   346.39   378.34   346.39   378.34
 tddfpt_apply_xc_analytic           140 10.0     1.13     1.75   335.48   336.67
 mp_cart_sub                       1932 12.4   317.18   318.45   317.18   318.45
 xc_pw_derive                      1221 11.7     0.03     0.08   309.12   313.97
 transfer_rs2pw_10                  170 13.2     0.08     0.11   293.67   302.04
 transfer_rs2pw_30                  170 13.2     0.34     0.39   283.86   297.87
 tddfpt_apply_energy_diff            14  9.0     0.00     0.00   296.67   296.77
 sum_up_and_integrate                27  8.0     0.00     0.02   295.34   296.05
 transfer_pw2rs_30                  167 12.8     0.47     0.55   280.15   294.57
 yz_to_x                           1281 16.6     6.77     8.61   280.19   294.30
 hfx_ks_matrix                       27  8.0     0.00     0.03   286.58   286.83
 mp_sum_dv                         4523 10.2   281.54   286.57   281.54   286.57
 ot_mini                             27  8.0     0.01     0.05   284.40   284.74
 dbcsr_desymmetrize_deep            963 11.4     0.02     0.05   264.86   279.33
 cp_dbcsr_plus_fm_fm_t_native       141 10.0     0.01     0.05   276.08   278.18
 init_scf_loop                        2  4.0     0.01     0.05   271.94   272.02
 transfer_pw2rs_10                  167 12.8     0.11     0.13   247.45   258.05
 multiply_cannon                   1813 11.9     0.10     0.23   240.02   256.35
 x_to_yz                           1488 15.9     9.77    13.88   247.18   251.22
 qs_ot_get_derivative                27  9.0     0.01     0.07   234.51   234.77
 mp_alltoall_i22                   3868 12.5   205.23   229.36   205.23   229.36
 transfer_rs2pw_200                 170 13.2     1.82     2.47   222.38   229.16
 cp_fm_trace_a1b1t1_aa             3880  9.0     0.02     0.10   224.19   227.40
 -------------------------------------------------------------------------------

 The number of warnings for this run is : 1
 
 -------------------------------------------------------------------------------
  **** **** ******  **  PROGRAM ENDED AT                 2024-02-02 13:19:06.620
 ***** ** ***  *** **   PROGRAM RAN ON                               nesh-srp113
 **    ****   ******    PROGRAM RAN BY                                  suphc355
 ***** **    ** ** **   PROGRAM PROCESS ID                                564482
  **** **  *******  **  PROGRAM STOPPED IN /gxfs_work/cau/suphc355/homologes/HX/
                                           AE/Cl
