 DBCSR| CPU Multiplication driver                                           XSMM (U)
 DBCSR| Multrec recursion limit                                              512 (U)
 DBCSR| Multiplication stack size                                           1000 (D)
 DBCSR| Maximum elements for images                                    UNLIMITED (U)
 DBCSR| Multiplicative factor virtual images                                   1 (U)
 DBCSR| Use multiplication densification                                       T (D)
 DBCSR| Multiplication size stacks                                             3 (U)
 DBCSR| Use memory pool for CPU allocation                                     F (U)
 DBCSR| Number of 3D layers                                               SINGLE (U)
 DBCSR| Use MPI memory allocation                                              F (U)
 DBCSR| Use RMA algorithm                                                      F (U)
 DBCSR| Use Communication thread                                               T (U)
 DBCSR| Communication thread load                                             83 (D)
 DBCSR| MPI: My process id                                                     0
 DBCSR| MPI: Number of processes                                             128
 DBCSR| OMP: Current number of threads                                         2
 DBCSR| OMP: Max number of threads                                             2
 DBCSR| Split modifier for TAS multiplication algorithm                  1.0E+00 (U)


  **** **** ******  **  PROGRAM STARTED AT               2024-01-12 14:08:35.818
 ***** ** ***  *** **   PROGRAM STARTED ON                           nesh-srp104
 **    ****   ******    PROGRAM STARTED BY                              suphc355
 ***** **    ** ** **   PROGRAM PROCESS ID                               2628070
  **** **  *******  **  PROGRAM STARTED IN /gxfs_work/cau/suphc355/homologes/HX/
                                           AE/Cl

 CP2K| version string:                 CP2K version 2024.1 (Development Version)
 CP2K| source code revision number:                                  git:15182a3
 CP2K| cp2kflags: omp libint fftw3 libxc libgrpp parallel mpi_f08 scalapack cosm
 CP2K|            a xsmm spglib mkl
 CP2K| is freely available from                            https://www.cp2k.org/
 CP2K| Program compiled at                           Di 9. Jan 09:05:01 CET 2024
 CP2K| Program compiled on                                           nesh-login2
 CP2K| Program compiled for                                                local
 CP2K| Data directory path            /gxfs_home/cau/suphc355/software/cp2k/data
 CP2K| Input file name                                                AE_aug.inp
 
 GLOBAL| Force Environment number                                              1
 GLOBAL| Basis set file name                                  ../../../basis_aug
 GLOBAL| Potential file name                                           POTENTIAL
 GLOBAL| MM Potential file name                                     MM_POTENTIAL
 GLOBAL| Coordinate file name                                            opt.xyz
 GLOBAL| Method name                                                        CP2K
 GLOBAL| Project name                                                 HCl_AE_aug
 GLOBAL| Run type                                                         ENERGY
 GLOBAL| FFT library                                                       FFTW3
 GLOBAL| Diagonalization library                                       ScaLAPACK
 GLOBAL| DGEMM library                                                      BLAS
 GLOBAL| Orthonormality check for eigenvectors                          DISABLED
 GLOBAL| Matrix multiplication library                                     COSMA
 GLOBAL| All-to-all communication in single precision                          F
 GLOBAL| FFTs using library dependent lengths                                  F
 GLOBAL| Grid backend                                                       AUTO
 GLOBAL| Global print level                                               MEDIUM
 GLOBAL| MPI I/O enabled                                                       T
 GLOBAL| Total number of message passing processes                           128
 GLOBAL| Number of threads for this process                                    2
 GLOBAL| This output is from process                                           0
 GLOBAL| Stack size for threads created by OpenMP (OMP_STACKSIZE)        default
 GLOBAL| CPU model name                              Intel(R) Xeon(R) Gold 6426Y
 GLOBAL| CPUID                                                              1003

 MEMORY| system memory details [Kb]
 MEMORY|                        rank 0           min           max       average
 MEMORY| MemTotal            263786136     263786136     263786136     263786136
 MEMORY| MemFree             244024444     244024444     244045784     244038910
 MEMORY| Buffers                952644        951100        954624        953199
 MEMORY| Cached                 719600        702760        719600        708909
 MEMORY| Slab                   508672        507884        510768        508989
 MEMORY| SReclaimable           135540        134144        135540        134830
 MEMORY| MemLikelyFree       245832228     245832228     245841700     245835848


 *** Fundamental physical constants (SI units) ***

 *** Literature: B. J. Mohr and B. N. Taylor,
 ***             CODATA recommended values of the fundamental physical
 ***             constants: 2006, Web Version 5.1
 ***             http://physics.nist.gov/constants

 Speed of light in vacuum [m/s]                             2.99792458000000E+08
 Magnetic constant or permeability of vacuum [N/A**2]       1.25663706143592E-06
 Electric constant or permittivity of vacuum [F/m]          8.85418781762039E-12
 Planck constant (h) [J*s]                                  6.62606896000000E-34
 Planck constant (h-bar) [J*s]                              1.05457162825177E-34
 Elementary charge [C]                                      1.60217648700000E-19
 Electron mass [kg]                                         9.10938215000000E-31
 Electron g factor [ ]                                     -2.00231930436220E+00
 Proton mass [kg]                                           1.67262163700000E-27
 Fine-structure constant                                    7.29735253760000E-03
 Rydberg constant [1/m]                                     1.09737315685270E+07
 Avogadro constant [1/mol]                                  6.02214179000000E+23
 Boltzmann constant [J/K]                                   1.38065040000000E-23
 Atomic mass unit [kg]                                      1.66053878200000E-27
 Bohr radius [m]                                            5.29177208590000E-11

 *** Conversion factors ***

 [u] -> [a.u.]                                              1.82288848426455E+03
 [Angstrom] -> [Bohr] = [a.u.]                              1.88972613288564E+00
 [a.u.] = [Bohr] -> [Angstrom]                              5.29177208590000E-01
 [a.u.] -> [s]                                              2.41888432650478E-17
 [a.u.] -> [fs]                                             2.41888432650478E-02
 [a.u.] -> [J]                                              4.35974393937059E-18
 [a.u.] -> [N]                                              8.23872205491840E-08
 [a.u.] -> [K]                                              3.15774647902944E+05
 [a.u.] -> [kJ/mol]                                         2.62549961709828E+03
 [a.u.] -> [kcal/mol]                                       6.27509468713739E+02
 [a.u.] -> [Pa]                                             2.94210107994716E+13
 [a.u.] -> [bar]                                            2.94210107994716E+08
 [a.u.] -> [atm]                                            2.90362800883016E+08
 [a.u.] -> [eV]                                             2.72113838565563E+01
 [a.u.] -> [Hz]                                             6.57968392072181E+15
 [a.u.] -> [1/cm] (wave numbers)                            2.19474631370540E+05
 [a.u./Bohr**2] -> [1/cm]                                   5.14048714338585E+03
 

 CELL_TOP| Volume [angstrom^3]:                                       512.000000
 CELL_TOP| Vector a [angstrom     8.000     0.000     0.000   |a| =     8.000000
 CELL_TOP| Vector b [angstrom     0.000     8.000     0.000   |b| =     8.000000
 CELL_TOP| Vector c [angstrom     0.000     0.000     8.000   |c| =     8.000000
 CELL_TOP| Angle (b,c), alpha [degree]:                                90.000000
 CELL_TOP| Angle (a,c), beta  [degree]:                                90.000000
 CELL_TOP| Angle (a,b), gamma [degree]:                                90.000000
 CELL_TOP| Numerically orthorhombic:                                         YES
 CELL_TOP| Periodicity                                                      NONE
 
 GENERATE|  Preliminary Number of Bonds generated:                             0
 GENERATE|  Achieved consistency in connectivity generation.

 CELL| Volume [angstrom^3]:                                           512.000000
 CELL| Vector a [angstrom]:       8.000     0.000     0.000   |a| =     8.000000
 CELL| Vector b [angstrom]:       0.000     8.000     0.000   |b| =     8.000000
 CELL| Vector c [angstrom]:       0.000     0.000     8.000   |c| =     8.000000
 CELL| Angle (b,c), alpha [degree]:                                    90.000000
 CELL| Angle (a,c), beta  [degree]:                                    90.000000
 CELL| Angle (a,b), gamma [degree]:                                    90.000000
 CELL| Numerically orthorhombic:                                             YES
 CELL| Periodicity                                                          NONE

 CELL_REF| Volume [angstrom^3]:                                       512.000000
 CELL_REF| Vector a [angstrom     8.000     0.000     0.000   |a| =     8.000000
 CELL_REF| Vector b [angstrom     0.000     8.000     0.000   |b| =     8.000000
 CELL_REF| Vector c [angstrom     0.000     0.000     8.000   |c| =     8.000000
 CELL_REF| Angle (b,c), alpha [degree]:                                90.000000
 CELL_REF| Angle (a,c), beta  [degree]:                                90.000000
 CELL_REF| Angle (a,b), gamma [degree]:                                90.000000
 CELL_REF| Numerically orthorhombic:                                         YES
 CELL_REF| Periodicity                                                      NONE

 *******************************************************************************
 *******************************************************************************
 **                                                                           **
 **     #####                         ##              ##                      **
 **    ##   ##            ##          ##              ##                      **
 **   ##     ##                       ##            ######                    **
 **   ##     ##  ##   ##  ##   #####  ##  ##   ####   ##    #####    #####    **
 **   ##     ##  ##   ##  ##  ##      ## ##   ##      ##   ##   ##  ##   ##   **
 **   ##  ## ##  ##   ##  ##  ##      ####     ###    ##   ######   ######    **
 **    ##  ###   ##   ##  ##  ##      ## ##      ##   ##   ##       ##        **
 **     #######   #####   ##   #####  ##  ##  ####    ##    #####   ##        **
 **           ##                                                    ##        **
 **                                                                           **
 **                                                ... make the atoms dance   **
 **                                                                           **
 **            Copyright (C) by CP2K developers group (2000-2024)             **
 **                      J. Chem. Phys. 152, 194103 (2020)                    **
 **                                                                           **
 *******************************************************************************

 DFT| Spin restricted Kohn-Sham (RKS) calculation                            RKS
 DFT| Multiplicity                                                             1
 DFT| Number of spin states                                                    1
 DFT| Charge                                                                   0
 DFT| Self-interaction correction (SIC)                                       NO
 DFT| Cutoffs: density                                              1.000000E-10
 DFT|          gradient                                             1.000000E-10
 DFT|          tau                                                  1.000000E-10
 DFT|          cutoff_smoothing_range                               0.000000E+00
 DFT| XC density smoothing                                                  NONE
 DFT| XC derivatives                                                          PW

 FUNCTIONAL| PBE:
 FUNCTIONAL| J.P.Perdew, K.Burke, M.Ernzerhof, Phys. Rev. Letter, vol. 77, n 18,
 FUNCTIONAL|  pp. 3865-3868, (1996) {spin unpolarized}                          


 QS| Method:                                                                GAPW
 QS| Density plane wave grid type                        NON-SPHERICAL FULLSPACE
 QS| Number of grid levels:                                                    5
 QS| Density cutoff [a.u.]:                                                600.0
 QS| Multi grid cutoff [a.u.]: 1) grid level                               600.0
 QS|                           2) grid level                               200.0
 QS|                           3) grid level                                66.7
 QS|                           4) grid level                                22.2
 QS|                           5) grid level                                 7.4
 QS| Grid level progression factor:                                          3.0
 QS| Relative density cutoff [a.u.]:                                        40.0
 QS| Interaction thresholds: eps_pgf_orb:                                1.0E-30
 QS|                         eps_filter_matrix:                          0.0E+00
 QS|                         eps_core_charge:                            1.0E-17
 QS|                         eps_rho_gspace:                             1.0E-15
 QS|                         eps_rho_rspace:                             1.0E-15
 QS|                         eps_gvg_rspace:                             3.2E-08
 QS|                         eps_ppl:                                    1.0E-02
 QS|                         eps_ppnl:                                   3.2E-10
 QS| GAPW|      One center basis from orbital basis primitives
 QS| GAPW|                   eps_fit:                                    1.0E-04
 QS| GAPW|                   eps_iso:                                    1.0E-12
 QS| GAPW|                   eps_svd:                                    1.0E-08
 QS| GAPW|                   eps_cpc:                                    1.0E-15
 QS| GAPW|   atom-r-grid: quadrature:                                     GC_LOG
 QS| GAPW|      atom-s-grid:  max l :                                          8
 QS| GAPW|      max_l_rho0 :                                                   2


 ATOMIC KIND INFORMATION

  1. Atomic kind: Cl                                    Number of atoms:       1

     Orbital Basis Set                                               aug-cc-pVQZ

       Number of orbital shell sets:                                          10
       Number of orbital shells:                                              22
       Number of primitive Cartesian functions:                               38
       Number of Cartesian basis functions:                                  109
       Number of spherical basis functions:                                   84
       Norm type:                                                              2

       Normalised Cartesian orbitals:

                        Set   Shell   Orbital            Exponent    Coefficient

                          1       1    1s           834900.000000       0.456078
                                                    125000.000000       0.853565
                                                     28430.000000       1.478942
                                                      8033.000000       2.419799
                                                      2608.000000       3.761804
                                                       933.900000       5.497407
                                                       360.000000       7.259669
                                                       147.000000       7.954421
                                                        62.880000       6.095099
                                                        27.600000       2.325174
                                                        11.080000       0.204037
                                                         5.075000      -0.008959
                                                         2.278000       0.002896
                                                         0.777500      -0.000502
                                                         0.352700       0.000139
                                                         0.143100      -0.000020

                          1       2    2s           834900.000000      -0.127884
                                                    125000.000000      -0.239218
                                                     28430.000000      -0.415249
                                                      8033.000000      -0.680326
                                                      2608.000000      -1.067703
                                                       933.900000      -1.589156
                                                       360.000000      -2.210874
                                                       147.000000      -2.699624
                                                        62.880000      -2.668408
                                                        27.600000      -1.499827
                                                        11.080000       0.497358
                                                         5.075000       1.358225
                                                         2.278000       0.583593
                                                         0.777500       0.025180
                                                         0.352700      -0.002176
                                                         0.143100       0.000316

                          1       3    3s           834900.000000       0.000000
                                                    125000.000000       0.000000
                                                     28430.000000       0.000000
                                                      8033.000000       0.000000
                                                      2608.000000       0.000000
                                                       933.900000       0.000000
                                                       360.000000       0.000000
                                                       147.000000       0.000000
                                                        62.880000       0.000000
                                                        27.600000       0.000000
                                                        11.080000       0.000000
                                                         5.075000       0.000000
                                                         2.278000       0.000000
                                                         0.777500       0.590113
                                                         0.352700       0.000000
                                                         0.143100       0.000000

                          1       4    4s           834900.000000       0.000000
                                                    125000.000000       0.000000
                                                     28430.000000       0.000000
                                                      8033.000000       0.000000
                                                      2608.000000       0.000000
                                                       933.900000       0.000000
                                                       360.000000       0.000000
                                                       147.000000       0.000000
                                                        62.880000       0.000000
                                                        27.600000       0.000000
                                                        11.080000       0.000000
                                                         5.075000       0.000000
                                                         2.278000       0.000000
                                                         0.777500       0.000000
                                                         0.352700       0.326185
                                                         0.143100       0.000000

                          1       5    5s           834900.000000       0.038710
                                                    125000.000000       0.072311
                                                     28430.000000       0.125784
                                                      8033.000000       0.205587
                                                      2608.000000       0.323957
                                                       933.900000       0.481142
                                                       360.000000       0.675917
                                                       147.000000       0.828945
                                                        62.880000       0.848113
                                                        27.600000       0.490247
                                                        11.080000      -0.171054
                                                         5.075000      -0.637022
                                                         2.278000      -0.461597
                                                         0.777500       0.159136
                                                         0.352700       0.220525
                                                         0.143100       0.047206

                          1       6    6s           834900.000000       0.000000
                                                    125000.000000       0.000000
                                                     28430.000000       0.000000
                                                      8033.000000       0.000000
                                                      2608.000000       0.000000
                                                       933.900000       0.000000
                                                       360.000000       0.000000
                                                       147.000000       0.000000
                                                        62.880000       0.000000
                                                        27.600000       0.000000
                                                        11.080000       0.000000
                                                         5.075000       0.000000
                                                         2.278000       0.000000
                                                         0.777500       0.000000
                                                         0.352700       0.000000
                                                         0.143100       0.165821

                          2       1    1s                0.051900       0.077497

                          3       1    1px            1703.000000       7.392180
                                                       403.600000      10.479622
                                                       130.300000      13.388240
                                                        49.050000      14.702578
                                                        20.260000      12.800709
                                                         8.787000       7.869884
                                                         3.919000       2.921669
                                                         1.765000       0.424220
                                                         0.720700       0.010214
                                                         0.283900       0.000346
                                                         0.106000       0.000029
                          3       1    1py            1703.000000       7.392180
                                                       403.600000      10.479622
                                                       130.300000      13.388240
                                                        49.050000      14.702578
                                                        20.260000      12.800709
                                                         8.787000       7.869884
                                                         3.919000       2.921669
                                                         1.765000       0.424220
                                                         0.720700       0.010214
                                                         0.283900       0.000346
                                                         0.106000       0.000029
                          3       1    1pz            1703.000000       7.392180
                                                       403.600000      10.479622
                                                       130.300000      13.388240
                                                        49.050000      14.702578
                                                        20.260000      12.800709
                                                         8.787000       7.869884
                                                         3.919000       2.921669
                                                         1.765000       0.424220
                                                         0.720700       0.010214
                                                         0.283900       0.000346
                                                         0.106000       0.000029

                          3       2    2px            1703.000000       0.000000
                                                       403.600000       0.000000
                                                       130.300000       0.000000
                                                        49.050000       0.000000
                                                        20.260000       0.000000
                                                         8.787000       0.000000
                                                         3.919000       0.000000
                                                         1.765000       0.000000
                                                         0.720700       0.946528
                                                         0.283900       0.000000
                                                         0.106000       0.000000
                          3       2    2py            1703.000000       0.000000
                                                       403.600000       0.000000
                                                       130.300000       0.000000
                                                        49.050000       0.000000
                                                        20.260000       0.000000
                                                         8.787000       0.000000
                                                         3.919000       0.000000
                                                         1.765000       0.000000
                                                         0.720700       0.946528
                                                         0.283900       0.000000
                                                         0.106000       0.000000
                          3       2    2pz            1703.000000       0.000000
                                                       403.600000       0.000000
                                                       130.300000       0.000000
                                                        49.050000       0.000000
                                                        20.260000       0.000000
                                                         8.787000       0.000000
                                                         3.919000       0.000000
                                                         1.765000       0.000000
                                                         0.720700       0.946528
                                                         0.283900       0.000000
                                                         0.106000       0.000000

                          3       3    3px            1703.000000      -2.000184
                                                       403.600000      -2.819822
                                                       130.300000      -3.661076
                                                        49.050000      -4.056901
                                                        20.260000      -3.684614
                                                         8.787000      -2.305879
                                                         3.919000      -0.962459
                                                         1.765000       0.111243
                                                         0.720700       0.364655
                                                         0.283900       0.149841
                                                         0.106000       0.019589
                          3       3    3py            1703.000000      -2.000184
                                                       403.600000      -2.819822
                                                       130.300000      -3.661076
                                                        49.050000      -4.056901
                                                        20.260000      -3.684614
                                                         8.787000      -2.305879
                                                         3.919000      -0.962459
                                                         1.765000       0.111243
                                                         0.720700       0.364655
                                                         0.283900       0.149841
                                                         0.106000       0.019589
                          3       3    3pz            1703.000000      -2.000184
                                                       403.600000      -2.819822
                                                       130.300000      -3.661076
                                                        49.050000      -4.056901
                                                        20.260000      -3.684614
                                                         8.787000      -2.305879
                                                         3.919000      -0.962459
                                                         1.765000       0.111243
                                                         0.720700       0.364655
                                                         0.283900       0.149841
                                                         0.106000       0.019589

                          3       4    4px            1703.000000       0.000000
                                                       403.600000       0.000000
                                                       130.300000       0.000000
                                                        49.050000       0.000000
                                                        20.260000       0.000000
                                                         8.787000       0.000000
                                                         3.919000       0.000000
                                                         1.765000       0.000000
                                                         0.720700       0.000000
                                                         0.283900       0.295391
                                                         0.106000       0.000000
                          3       4    4py            1703.000000       0.000000
                                                       403.600000       0.000000
                                                       130.300000       0.000000
                                                        49.050000       0.000000
                                                        20.260000       0.000000
                                                         8.787000       0.000000
                                                         3.919000       0.000000
                                                         1.765000       0.000000
                                                         0.720700       0.000000
                                                         0.283900       0.295391
                                                         0.106000       0.000000
                          3       4    4pz            1703.000000       0.000000
                                                       403.600000       0.000000
                                                       130.300000       0.000000
                                                        49.050000       0.000000
                                                        20.260000       0.000000
                                                         8.787000       0.000000
                                                         3.919000       0.000000
                                                         1.765000       0.000000
                                                         0.720700       0.000000
                                                         0.283900       0.295391
                                                         0.106000       0.000000

                          3       5    5px            1703.000000       0.000000
                                                       403.600000       0.000000
                                                       130.300000       0.000000
                                                        49.050000       0.000000
                                                        20.260000       0.000000
                                                         8.787000       0.000000
                                                         3.919000       0.000000
                                                         1.765000       0.000000
                                                         0.720700       0.000000
                                                         0.283900       0.000000
                                                         0.106000       0.086213
                          3       5    5py            1703.000000       0.000000
                                                       403.600000       0.000000
                                                       130.300000       0.000000
                                                        49.050000       0.000000
                                                        20.260000       0.000000
                                                         8.787000       0.000000
                                                         3.919000       0.000000
                                                         1.765000       0.000000
                                                         0.720700       0.000000
                                                         0.283900       0.000000
                                                         0.106000       0.086213
                          3       5    5pz            1703.000000       0.000000
                                                       403.600000       0.000000
                                                       130.300000       0.000000
                                                        49.050000       0.000000
                                                        20.260000       0.000000
                                                         8.787000       0.000000
                                                         3.919000       0.000000
                                                         1.765000       0.000000
                                                         0.720700       0.000000
                                                         0.283900       0.000000
                                                         0.106000       0.086213

                          4       1    1px               0.037600       0.023601
                          4       1    1py               0.037600       0.023601
                          4       1    1pz               0.037600       0.023601

                          5       1    1dx2              1.551000       3.547971
                                                         0.628000       0.000000
                                                         0.254000       0.000000
                          5       1    1dxy              1.551000       6.145267
                                                         0.628000       0.000000
                                                         0.254000       0.000000
                          5       1    1dxz              1.551000       6.145267
                                                         0.628000       0.000000
                                                         0.254000       0.000000
                          5       1    1dy2              1.551000       3.547971
                                                         0.628000       0.000000
                                                         0.254000       0.000000
                          5       1    1dyz              1.551000       6.145267
                                                         0.628000       0.000000
                                                         0.254000       0.000000
                          5       1    1dz2              1.551000       3.547971
                                                         0.628000       0.000000
                                                         0.254000       0.000000

                          5       2    2dx2              1.551000       0.000000
                                                         0.628000       0.729187
                                                         0.254000       0.000000
                          5       2    2dxy              1.551000       0.000000
                                                         0.628000       1.262989
                                                         0.254000       0.000000
                          5       2    2dxz              1.551000       0.000000
                                                         0.628000       1.262989
                                                         0.254000       0.000000
                          5       2    2dy2              1.551000       0.000000
                                                         0.628000       0.729187
                                                         0.254000       0.000000
                          5       2    2dyz              1.551000       0.000000
                                                         0.628000       1.262989
                                                         0.254000       0.000000
                          5       2    2dz2              1.551000       0.000000
                                                         0.628000       0.729187
                                                         0.254000       0.000000

                          5       3    3dx2              1.551000       0.000000
                                                         0.628000       0.000000
                                                         0.254000       0.149578
                          5       3    3dxy              1.551000       0.000000
                                                         0.628000       0.000000
                                                         0.254000       0.259077
                          5       3    3dxz              1.551000       0.000000
                                                         0.628000       0.000000
                                                         0.254000       0.259077
                          5       3    3dy2              1.551000       0.000000
                                                         0.628000       0.000000
                                                         0.254000       0.149578
                          5       3    3dyz              1.551000       0.000000
                                                         0.628000       0.000000
                                                         0.254000       0.259077
                          5       3    3dz2              1.551000       0.000000
                                                         0.628000       0.000000
                                                         0.254000       0.149578

                          6       1    1dx2              0.095200       0.026855
                          6       1    1dxy              0.095200       0.046514
                          6       1    1dxz              0.095200       0.046514
                          6       1    1dy2              0.095200       0.026855
                          6       1    1dyz              0.095200       0.046514
                          6       1    1dz2              0.095200       0.026855

                          7       1    1fx3              1.089000       1.783476
                                                         0.423000       0.000000
                          7       1    1fx2y             1.089000       3.987973
                                                         0.423000       0.000000
                          7       1    1fx2z             1.089000       3.987973
                                                         0.423000       0.000000
                          7       1    1fxy2             1.089000       3.987973
                                                         0.423000       0.000000
                          7       1    1fxyz             1.089000       6.907371
                                                         0.423000       0.000000
                          7       1    1fxz2             1.089000       3.987973
                                                         0.423000       0.000000
                          7       1    1fy3              1.089000       1.783476
                                                         0.423000       0.000000
                          7       1    1fy2z             1.089000       3.987973
                                                         0.423000       0.000000
                          7       1    1fyz2             1.089000       3.987973
                                                         0.423000       0.000000
                          7       1    1fz3              1.089000       1.783476
                                                         0.423000       0.000000

                          7       2    2fx3              1.089000       0.000000
                                                         0.423000       0.212432
                          7       2    2fx2y             1.089000       0.000000
                                                         0.423000       0.475013
                          7       2    2fx2z             1.089000       0.000000
                                                         0.423000       0.475013
                          7       2    2fxy2             1.089000       0.000000
                                                         0.423000       0.475013
                          7       2    2fxyz             1.089000       0.000000
                                                         0.423000       0.822746
                          7       2    2fxz2             1.089000       0.000000
                                                         0.423000       0.475013
                          7       2    2fy3              1.089000       0.000000
                                                         0.423000       0.212432
                          7       2    2fy2z             1.089000       0.000000
                                                         0.423000       0.475013
                          7       2    2fyz2             1.089000       0.000000
                                                         0.423000       0.475013
                          7       2    2fz3              1.089000       0.000000
                                                         0.423000       0.212432

                          8       1    1fx3              0.217000       0.047314
                          8       1    1fx2y             0.217000       0.105797
                          8       1    1fx2z             0.217000       0.105797
                          8       1    1fxy2             0.217000       0.105797
                          8       1    1fxyz             0.217000       0.183246
                          8       1    1fxz2             0.217000       0.105797
                          8       1    1fy3              0.217000       0.047314
                          8       1    1fy2z             0.217000       0.105797
                          8       1    1fyz2             0.217000       0.105797
                          8       1    1fz3              0.217000       0.047314

                          9       1    1gx4              0.827000       0.660048
                          9       1    1gx3y             0.827000       1.746323
                          9       1    1gx3z             0.827000       1.746323
                          9       1    1gx2y2            0.827000       2.254493
                          9       1    1gx2yz            0.827000       3.904897
                          9       1    1gx2z2            0.827000       2.254493
                          9       1    1gxy3             0.827000       1.746323
                          9       1    1gxy2z            0.827000       3.904897
                          9       1    1gxyz2            0.827000       3.904897
                          9       1    1gxz3             0.827000       1.746323
                          9       1    1gy4              0.827000       0.660048
                          9       1    1gy3z             0.827000       1.746323
                          9       1    1gy2z2            0.827000       2.254493
                          9       1    1gyz3             0.827000       1.746323
                          9       1    1gz4              0.827000       0.660048

                         10       1    1gx4              0.378000       0.076655
                         10       1    1gx3y             0.378000       0.202809
                         10       1    1gx3z             0.378000       0.202809
                         10       1    1gx2y2            0.378000       0.261825
                         10       1    1gx2yz            0.378000       0.453494
                         10       1    1gx2z2            0.378000       0.261825
                         10       1    1gxy3             0.378000       0.202809
                         10       1    1gxy2z            0.378000       0.453494
                         10       1    1gxyz2            0.378000       0.453494
                         10       1    1gxz3             0.378000       0.202809
                         10       1    1gy4              0.378000       0.076655
                         10       1    1gy3z             0.378000       0.202809
                         10       1    1gy2z2            0.378000       0.261825
                         10       1    1gyz3             0.378000       0.202809
                         10       1    1gz4              0.378000       0.076655

       Atomic covalent radius [Angstrom]:                                  0.990

       Atomic van der Waals radius [Angstrom]:                             1.750

     The atoms of this atomic kind are PAW atoms (GAPW):
       Hard Gaussian function radius:                                      1.512
       Rho0 radius:                                                        1.512
       Maximum GTO radius used for PAW projector construction:            24.566

     GAPW Soft Basis Set                                        aug-cc-pVQZ_soft

       Number of orbital shell sets:                                          10
       Number of orbital shells:                                              22
       Number of primitive Cartesian functions:                               20
       Number of Cartesian basis functions:                                  109
       Number of spherical basis functions:                                   84
       Norm type:                                                              2

       Normalised Cartesian orbitals:

                        Set   Shell   Orbital            Exponent    Coefficient

                          1       1    1s                2.278000       0.002896
                                                         0.777500      -0.000502
                                                         0.352700       0.000139
                                                         0.143100      -0.000020

                          1       2    2s                2.278000       0.583593
                                                         0.777500       0.025180
                                                         0.352700      -0.002176
                                                         0.143100       0.000316

                          1       3    3s                2.278000       0.000000
                                                         0.777500       0.590113
                                                         0.352700       0.000000
                                                         0.143100       0.000000

                          1       4    4s                2.278000       0.000000
                                                         0.777500       0.000000
                                                         0.352700       0.326185
                                                         0.143100       0.000000

                          1       5    5s                2.278000      -0.461597
                                                         0.777500       0.159136
                                                         0.352700       0.220525
                                                         0.143100       0.047206

                          1       6    6s                2.278000       0.000000
                                                         0.777500       0.000000
                                                         0.352700       0.000000
                                                         0.143100       0.165821

                          2       1    1s                0.051900       0.077497

                          3       1    1px               3.919000       2.921669
                                                         1.765000       0.424220
                                                         0.720700       0.010214
                                                         0.283900       0.000346
                                                         0.106000       0.000029
                          3       1    1py               3.919000       2.921669
                                                         1.765000       0.424220
                                                         0.720700       0.010214
                                                         0.283900       0.000346
                                                         0.106000       0.000029
                          3       1    1pz               3.919000       2.921669
                                                         1.765000       0.424220
                                                         0.720700       0.010214
                                                         0.283900       0.000346
                                                         0.106000       0.000029

                          3       2    2px               3.919000       0.000000
                                                         1.765000       0.000000
                                                         0.720700       0.946528
                                                         0.283900       0.000000
                                                         0.106000       0.000000
                          3       2    2py               3.919000       0.000000
                                                         1.765000       0.000000
                                                         0.720700       0.946528
                                                         0.283900       0.000000
                                                         0.106000       0.000000
                          3       2    2pz               3.919000       0.000000
                                                         1.765000       0.000000
                                                         0.720700       0.946528
                                                         0.283900       0.000000
                                                         0.106000       0.000000

                          3       3    3px               3.919000      -0.962459
                                                         1.765000       0.111243
                                                         0.720700       0.364655
                                                         0.283900       0.149841
                                                         0.106000       0.019589
                          3       3    3py               3.919000      -0.962459
                                                         1.765000       0.111243
                                                         0.720700       0.364655
                                                         0.283900       0.149841
                                                         0.106000       0.019589
                          3       3    3pz               3.919000      -0.962459
                                                         1.765000       0.111243
                                                         0.720700       0.364655
                                                         0.283900       0.149841
                                                         0.106000       0.019589

                          3       4    4px               3.919000       0.000000
                                                         1.765000       0.000000
                                                         0.720700       0.000000
                                                         0.283900       0.295391
                                                         0.106000       0.000000
                          3       4    4py               3.919000       0.000000
                                                         1.765000       0.000000
                                                         0.720700       0.000000
                                                         0.283900       0.295391
                                                         0.106000       0.000000
                          3       4    4pz               3.919000       0.000000
                                                         1.765000       0.000000
                                                         0.720700       0.000000
                                                         0.283900       0.295391
                                                         0.106000       0.000000

                          3       5    5px               3.919000       0.000000
                                                         1.765000       0.000000
                                                         0.720700       0.000000
                                                         0.283900       0.000000
                                                         0.106000       0.086213
                          3       5    5py               3.919000       0.000000
                                                         1.765000       0.000000
                                                         0.720700       0.000000
                                                         0.283900       0.000000
                                                         0.106000       0.086213
                          3       5    5pz               3.919000       0.000000
                                                         1.765000       0.000000
                                                         0.720700       0.000000
                                                         0.283900       0.000000
                                                         0.106000       0.086213

                          4       1    1px               0.037600       0.023601
                          4       1    1py               0.037600       0.023601
                          4       1    1pz               0.037600       0.023601

                          5       1    1dx2              1.551000       3.547971
                                                         0.628000       0.000000
                                                         0.254000       0.000000
                          5       1    1dxy              1.551000       6.145267
                                                         0.628000       0.000000
                                                         0.254000       0.000000
                          5       1    1dxz              1.551000       6.145267
                                                         0.628000       0.000000
                                                         0.254000       0.000000
                          5       1    1dy2              1.551000       3.547971
                                                         0.628000       0.000000
                                                         0.254000       0.000000
                          5       1    1dyz              1.551000       6.145267
                                                         0.628000       0.000000
                                                         0.254000       0.000000
                          5       1    1dz2              1.551000       3.547971
                                                         0.628000       0.000000
                                                         0.254000       0.000000

                          5       2    2dx2              1.551000       0.000000
                                                         0.628000       0.729187
                                                         0.254000       0.000000
                          5       2    2dxy              1.551000       0.000000
                                                         0.628000       1.262989
                                                         0.254000       0.000000
                          5       2    2dxz              1.551000       0.000000
                                                         0.628000       1.262989
                                                         0.254000       0.000000
                          5       2    2dy2              1.551000       0.000000
                                                         0.628000       0.729187
                                                         0.254000       0.000000
                          5       2    2dyz              1.551000       0.000000
                                                         0.628000       1.262989
                                                         0.254000       0.000000
                          5       2    2dz2              1.551000       0.000000
                                                         0.628000       0.729187
                                                         0.254000       0.000000

                          5       3    3dx2              1.551000       0.000000
                                                         0.628000       0.000000
                                                         0.254000       0.149578
                          5       3    3dxy              1.551000       0.000000
                                                         0.628000       0.000000
                                                         0.254000       0.259077
                          5       3    3dxz              1.551000       0.000000
                                                         0.628000       0.000000
                                                         0.254000       0.259077
                          5       3    3dy2              1.551000       0.000000
                                                         0.628000       0.000000
                                                         0.254000       0.149578
                          5       3    3dyz              1.551000       0.000000
                                                         0.628000       0.000000
                                                         0.254000       0.259077
                          5       3    3dz2              1.551000       0.000000
                                                         0.628000       0.000000
                                                         0.254000       0.149578

                          6       1    1dx2              0.095200       0.026855
                          6       1    1dxy              0.095200       0.046514
                          6       1    1dxz              0.095200       0.046514
                          6       1    1dy2              0.095200       0.026855
                          6       1    1dyz              0.095200       0.046514
                          6       1    1dz2              0.095200       0.026855

                          7       1    1fx3              1.089000       1.783476
                                                         0.423000       0.000000
                          7       1    1fx2y             1.089000       3.987973
                                                         0.423000       0.000000
                          7       1    1fx2z             1.089000       3.987973
                                                         0.423000       0.000000
                          7       1    1fxy2             1.089000       3.987973
                                                         0.423000       0.000000
                          7       1    1fxyz             1.089000       6.907371
                                                         0.423000       0.000000
                          7       1    1fxz2             1.089000       3.987973
                                                         0.423000       0.000000
                          7       1    1fy3              1.089000       1.783476
                                                         0.423000       0.000000
                          7       1    1fy2z             1.089000       3.987973
                                                         0.423000       0.000000
                          7       1    1fyz2             1.089000       3.987973
                                                         0.423000       0.000000
                          7       1    1fz3              1.089000       1.783476
                                                         0.423000       0.000000

                          7       2    2fx3              1.089000       0.000000
                                                         0.423000       0.212432
                          7       2    2fx2y             1.089000       0.000000
                                                         0.423000       0.475013
                          7       2    2fx2z             1.089000       0.000000
                                                         0.423000       0.475013
                          7       2    2fxy2             1.089000       0.000000
                                                         0.423000       0.475013
                          7       2    2fxyz             1.089000       0.000000
                                                         0.423000       0.822746
                          7       2    2fxz2             1.089000       0.000000
                                                         0.423000       0.475013
                          7       2    2fy3              1.089000       0.000000
                                                         0.423000       0.212432
                          7       2    2fy2z             1.089000       0.000000
                                                         0.423000       0.475013
                          7       2    2fyz2             1.089000       0.000000
                                                         0.423000       0.475013
                          7       2    2fz3              1.089000       0.000000
                                                         0.423000       0.212432

                          8       1    1fx3              0.217000       0.047314
                          8       1    1fx2y             0.217000       0.105797
                          8       1    1fx2z             0.217000       0.105797
                          8       1    1fxy2             0.217000       0.105797
                          8       1    1fxyz             0.217000       0.183246
                          8       1    1fxz2             0.217000       0.105797
                          8       1    1fy3              0.217000       0.047314
                          8       1    1fy2z             0.217000       0.105797
                          8       1    1fyz2             0.217000       0.105797
                          8       1    1fz3              0.217000       0.047314

                          9       1    1gx4              0.827000       0.660048
                          9       1    1gx3y             0.827000       1.746323
                          9       1    1gx3z             0.827000       1.746323
                          9       1    1gx2y2            0.827000       2.254493
                          9       1    1gx2yz            0.827000       3.904897
                          9       1    1gx2z2            0.827000       2.254493
                          9       1    1gxy3             0.827000       1.746323
                          9       1    1gxy2z            0.827000       3.904897
                          9       1    1gxyz2            0.827000       3.904897
                          9       1    1gxz3             0.827000       1.746323
                          9       1    1gy4              0.827000       0.660048
                          9       1    1gy3z             0.827000       1.746323
                          9       1    1gy2z2            0.827000       2.254493
                          9       1    1gyz3             0.827000       1.746323
                          9       1    1gz4              0.827000       0.660048

                         10       1    1gx4              0.378000       0.076655
                         10       1    1gx3y             0.378000       0.202809
                         10       1    1gx3z             0.378000       0.202809
                         10       1    1gx2y2            0.378000       0.261825
                         10       1    1gx2yz            0.378000       0.453494
                         10       1    1gx2z2            0.378000       0.261825
                         10       1    1gxy3             0.378000       0.202809
                         10       1    1gxy2z            0.378000       0.453494
                         10       1    1gxyz2            0.378000       0.453494
                         10       1    1gxz3             0.378000       0.202809
                         10       1    1gy4              0.378000       0.076655
                         10       1    1gy3z             0.378000       0.202809
                         10       1    1gy2z2            0.378000       0.261825
                         10       1    1gyz3             0.378000       0.202809
                         10       1    1gz4              0.378000       0.076655

     AE Potential information for                                            ALL

       Description:                                       All-electron potential
                                          Krack, Parrinello, PCCP 2, 2105 (2000)

       Gaussian exponent of the core charge distribution:               2.974420
       Electronic configuration (s p d ...):                           6  11   0

  2. Atomic kind: H                                     Number of atoms:       1

     Orbital Basis Set                                               aug-cc-pVQZ

       Number of orbital shell sets:                                           8
       Number of orbital shells:                                              14
       Number of primitive Cartesian functions:                               16
       Number of Cartesian basis functions:                                   55
       Number of spherical basis functions:                                   46
       Norm type:                                                              2

       Normalised Cartesian orbitals:

                        Set   Shell   Orbital            Exponent    Coefficient

                          1       1    1s               82.640000       0.000000
                                                        12.410000       0.000000
                                                         2.824000       0.000000
                                                         0.797700       0.601575
                                                         0.258100       0.000000
                                                         0.089890       0.000000

                          1       2    2s               82.640000       0.000000
                                                        12.410000       0.000000
                                                         2.824000       0.000000
                                                         0.797700       0.000000
                                                         0.258100       0.258078
                                                         0.089890       0.000000

                          1       3    3s               82.640000       0.039186
                                                        12.410000       0.072302
                                                         2.824000       0.117344
                                                         0.797700       0.154530
                                                         0.258100       0.128360
                                                         0.089890       0.034648

                          1       4    4s               82.640000       0.000000
                                                        12.410000       0.000000
                                                         2.824000       0.000000
                                                         0.797700       0.000000
                                                         0.258100       0.000000
                                                         0.089890       0.117002

                          2       1    1s                0.023630       0.042954

                          3       1    1px               2.292000       4.019836
                                                         0.838000       0.000000
                                                         0.292000       0.000000
                          3       1    1py               2.292000       4.019836
                                                         0.838000       0.000000
                                                         0.292000       0.000000
                          3       1    1pz               2.292000       4.019836
                                                         0.838000       0.000000
                                                         0.292000       0.000000

                          3       2    2px               2.292000       0.000000
                                                         0.838000       1.142865
                                                         0.292000       0.000000
                          3       2    2py               2.292000       0.000000
                                                         0.838000       1.142865
                                                         0.292000       0.000000
                          3       2    2pz               2.292000       0.000000
                                                         0.838000       1.142865
                                                         0.292000       0.000000

                          3       3    3px               2.292000       0.000000
                                                         0.838000       0.000000
                                                         0.292000       0.305963
                          3       3    3py               2.292000       0.000000
                                                         0.838000       0.000000
                                                         0.292000       0.305963
                          3       3    3pz               2.292000       0.000000
                                                         0.838000       0.000000
                                                         0.292000       0.305963

                          4       1    1px               0.084800       0.065228
                          4       1    1py               0.084800       0.065228
                          4       1    1pz               0.084800       0.065228

                          5       1    1dx2              2.062000       5.840024
                                                         0.662000       0.000000
                          5       1    1dxy              2.062000      10.115218
                                                         0.662000       0.000000
                          5       1    1dxz              2.062000      10.115218
                                                         0.662000       0.000000
                          5       1    1dy2              2.062000       5.840024
                                                         0.662000       0.000000
                          5       1    1dyz              2.062000      10.115218
                                                         0.662000       0.000000
                          5       1    1dz2              2.062000       5.840024
                                                         0.662000       0.000000

                          5       2    2dx2              2.062000       0.000000
                                                         0.662000       0.799670
                          5       2    2dxy              2.062000       0.000000
                                                         0.662000       1.385069
                          5       2    2dxz              2.062000       0.000000
                                                         0.662000       1.385069
                          5       2    2dy2              2.062000       0.000000
                                                         0.662000       0.799670
                          5       2    2dyz              2.062000       0.000000
                                                         0.662000       1.385069
                          5       2    2dz2              2.062000       0.000000
                                                         0.662000       0.799670

                          6       1    1dx2              0.190000       0.089997
                          6       1    1dxy              0.190000       0.155879
                          6       1    1dxz              0.190000       0.155879
                          6       1    1dy2              0.190000       0.089997
                          6       1    1dyz              0.190000       0.155879
                          6       1    1dz2              0.190000       0.089997

                          7       1    1fx3              1.397000       3.123535
                          7       1    1fx2y             1.397000       6.984436
                          7       1    1fx2z             1.397000       6.984436
                          7       1    1fxy2             1.397000       6.984436
                          7       1    1fxyz             1.397000      12.097399
                          7       1    1fxz2             1.397000       6.984436
                          7       1    1fy3              1.397000       3.123535
                          7       1    1fy2z             1.397000       6.984436
                          7       1    1fyz2             1.397000       6.984436
                          7       1    1fz3              1.397000       3.123535

                          8       1    1fx3              0.360000       0.147787
                          8       1    1fx2y             0.360000       0.330461
                          8       1    1fx2z             0.360000       0.330461
                          8       1    1fxy2             0.360000       0.330461
                          8       1    1fxyz             0.360000       0.572375
                          8       1    1fxz2             0.360000       0.330461
                          8       1    1fy3              0.360000       0.147787
                          8       1    1fy2z             0.360000       0.330461
                          8       1    1fyz2             0.360000       0.330461
                          8       1    1fz3              0.360000       0.147787

       Atomic covalent radius [Angstrom]:                                  0.320

       Atomic van der Waals radius [Angstrom]:                             1.090

     The atoms of this atomic kind are PAW atoms (GAPW):
       Hard Gaussian function radius:                                      1.200
       Rho0 radius:                                                        1.200
[...]
 flops     9 x     9 x    46             15723720       0.0%    100.0%      0.0%
 flops    46 x    84 x     9             21422016       0.0%    100.0%      0.0%
 flops     9 x     9 x    84             28712880       0.0%    100.0%      0.0%
 flops    46 x     9 x    46             32603328       0.0%    100.0%      0.0%
 flops    84 x    84 x     9             39118464       0.0%    100.0%      0.0%
 flops    46 x     9 x    84             55154736       0.0%    100.0%      0.0%
 flops    84 x     9 x    46             55154736       0.0%    100.0%      0.0%
 flops    84 x     9 x    84            108718848       0.0%    100.0%      0.0%
 flops inhomo. stacks                           0       0.0%      0.0%      0.0%
 flops total                       407.362148E+06       0.0%    100.0%      0.0%
 flops max/rank                    288.984484E+06       0.0%    100.0%      0.0%
 matmuls inhomo. stacks                         0       0.0%      0.0%      0.0%
 matmuls total                               8983       0.0%    100.0%      0.0%
 number of processed stacks                  8983       0.0%    100.0%      0.0%
 average stack size                                     0.0       1.0       0.0
 marketing flops                   437.584160E+06
 -------------------------------------------------------------------------------
 # multiplications                           1533
 max memory usage/rank             811.675648E+06
 # max total images/rank                        2
 # max 3D layers                                1
 # MPI messages exchanged                 5690496
 MPI messages size (bytes):
  total size                         1.714425E+09
  min size                           0.000000E+00
  max size                          87.360000E+03
  average size                     301.278595E+00
 MPI breakdown and total messages size (bytes):
             size <=      128             5626022                        0
       128 < size <=     8192               34655                140679864
      8192 < size <=    32768                7634                 75544400
     32768 < size <=   131072               22185               1498200480
    131072 < size <=  4194304                   0                        0
   4194304 < size <= 16777216                   0                        0
  16777216 < size                               0                        0
 -------------------------------------------------------------------------------

 *** WARNING in dbcsr_mm.F:291 :: Using a non-square number of MPI ranks ***
 *** might lead to poor performance. Used ranks: 128 Suggested: 121 256  ***

 -------------------------------------------------------------------------------
 -                                                                             -
 -                      DBCSR MESSAGE PASSING PERFORMANCE                      -
 -                                                                             -
 -------------------------------------------------------------------------------
 ROUTINE             CALLS      AVE VOLUME [Bytes]
 MP_Bcast               22                     12.
 MP_Allreduce         6676                      8.
 MP_Alltoall         18948                  38011.
 MP_ISend            97142                   1485.
 MP_IRecv            95016                    448.
 -------------------------------------------------------------------------------

 -------------------------------------------------------------------------------
 -                                                                             -
 -                                DBM STATISTICS                               -
 -                                                                             -
 -------------------------------------------------------------------------------
    M  x    N  x    K                                          COUNT     PERCENT
 -------------------------------------------------------------------------------

 -------------------------------------------------------------------------------
 -                                                                             -
 -                                GRID STATISTICS                              -
 -                                                                             -
 -------------------------------------------------------------------------------
 LP    KERNEL             BACKEND                              COUNT     PERCENT
 2     collocate ortho    CPU                                  30770       8.90%
 3     collocate ortho    CPU                                  30770       8.90%
 2     integrate ortho    CPU                                  30227       8.74%
 3     integrate ortho    CPU                                  30227       8.74%
 1     collocate ortho    CPU                                  25500       7.37%
 2     collocate general  CPU                                  25344       7.33%
 1     integrate ortho    CPU                                  25050       7.24%
 2     integrate general  CPU                                  24832       7.18%
 4     collocate ortho    CPU                                  24310       7.03%
 4     integrate ortho    CPU                                  23881       6.90%
 5     collocate ortho    CPU                                  14450       4.18%
 5     integrate ortho    CPU                                  14195       4.10%
 0     collocate ortho    CPU                                  12750       3.69%
 0     integrate ortho    CPU                                  12525       3.62%
 6     collocate ortho    CPU                                   6970       2.02%
 6     integrate ortho    CPU                                   6847       1.98%
 7     collocate ortho    CPU                                   2720       0.79%
 7     integrate ortho    CPU                                   2672       0.77%
 8     collocate ortho    CPU                                    680       0.20%
 8     integrate ortho    CPU                                    668       0.19%
 0     collocate general  CPU                                    256       0.07%
 0     integrate general  CPU                                    256       0.07%
 -------------------------------------------------------------------------------

 MEMORY| Estimated peak process memory [MiB]                                 775

 -------------------------------------------------------------------------------
 ----                             MULTIGRID INFO                            ----
 -------------------------------------------------------------------------------
 count for grid        1:       22415505          cutoff [a.u.]          600.00
 count for grid        2:        3004488          cutoff [a.u.]          200.00
 count for grid        3:        2366415          cutoff [a.u.]           66.67
 count for grid        4:        1016482          cutoff [a.u.]           22.22
 count for grid        5:          98594          cutoff [a.u.]            7.41
 total gridlevel count  :       28901484

 -------------------------------------------------------------------------------
 -                                                                             -
 -                         MESSAGE PASSING PERFORMANCE                         -
 -                                                                             -
 -------------------------------------------------------------------------------

 ROUTINE             CALLS      AVE VOLUME [Bytes]
 MP_Group                6
 MP_Bcast             1072                 394806.
 MP_Allreduce         7541                  27621.
 MP_Sync               760
 MP_Alltoall          4809                1721454.
 MP_SendRecv         86360                  23360.
 MP_ISendRecv        84836                  23360.
 MP_Wait            169983
 MP_comm_split          81
 MP_ISend            84278                 103078.
 MP_IRecv            86911                  99932.
 -------------------------------------------------------------------------------


 -------------------------------------------------------------------------------
 -                                                                             -
 -                           R E F E R E N C E S                               -
 -                                                                             -
 -------------------------------------------------------------------------------
 
 CP2K version 2024.1 (Development Version), the CP2K developers group (2024).
 CP2K is freely available from https://www.cp2k.org/ .

 Kuehne,Thomas D.; Iannuzzi,Marcella; Del Ben,Mauro;
 Rybkin,Vladimir V.; Seewald,Patrick; Stein,Frederick; Laino,Teodoro;
 Khaliullin,Rustam Z.; Schuett,Ole; Schiffmann,Florian; Golze,Dorothea;
 Wilhelm,Jan; Chulkov,Sergey; Bani-Hashemian,Mohammad Hossein;
 Weber,Valery; Borstnik,Urban; Taillefumier,Mathieu;
 Jakobovits,Alice Shoshana; Lazzaro,Alfio; Pabst,Hans; Mueller,Tiziano;
 Schade,Robert; Guidon,Manuel; Andermatt,Samuel; Holmberg,Nico;
 Schenter,Gregory K.; Hehn,Anna; Bussy,Augustin; Belleflamme,Fabian;
 Tabacchi,Gloria; Gloess,Andreas; Lass,Michael; Bethune,Iain;
 Mundy,Christopher J.; Plessl,Christian; Watkins,Matt;
 VandeVondele,Joost; Krack,Matthias; Hutter,Juerg. 
 The Journal of Chemical Physics, 152 (19), (2020). 
 CP2K: An electronic structure and molecular dynamics software package -
 Quickstep: Efficient and accurate electronic structure calculations.
 https://doi.org/10.1063/5.0007045

 Schuett, Ole; Messmer, Peter; Hutter, Juerg; VandeVondele, Joost. 
 Electronic Structure Calculations on Graphics Processing Units, John
 Wiley & Sons, Ltd, 173-190 (2016). 
 GPU-Accelerated Sparse Matrix-Matrix Multiplication for
 Linear Scaling Density Functional Theory.
 https://doi.org/10.1002/9781118670712.ch8

 Heinecke, A; Henry, G; Hutchinson, M; Pabst, H. 
 Proceedings of Intl. Supercomputing Conference, 981-991 (2016). 
 LIBXSMM: Accelerating Small Matrix Multiplications
 by Runtime Code Generation.
 https://doi.org/10.1109/SC.2016.83

 Borstnik, U; VandeVondele, J; Weber, V; Hutter, J. 
 PARALLEL COMPUTING, 40 (5-6), 47-58 (2014). 
 Sparse matrix multiplication: The distributed block-compressed sparse
 row library.
 https://doi.org/10.1016/j.parco.2014.03.012

 Hutter, J; Iannuzzi, M; Schiffmann, F; VandeVondele, J. 
 WIREs Comput Mol Sci., 4 (1), 15-25 (2014). 
 CP2K: atomistic simulations of condensed matter systems.
 https://doi.org/10.1002/wcms.1159

 Frigo, M; Johnson, SG. 
 PROCEEDINGS OF THE IEEE, 93 (2), 216-231 (2005). 
 The design and implementation of FFTW3.
 https://doi.org/10.1109/JPROC.2004.840301

 Iannuzzi, M; Chassaing, T; Wallman, T; Hutter, J. 
 CHIMIA, 59 (7-8), 499-503 (2005). 
 Ground and excited state density functional calculations with the
 Gaussian and augmented-plane-wave method.
 https://doi.org/10.2533/000942905777676164

 VandeVondele, J; Hutter, J. 
 JOURNAL OF CHEMICAL PHYSICS, 118 (10), 4365-4369 (2003). 
 An efficient orbital transformation method for electronic structure
 calculations.
 https://doi.org/10.1063/1.1543154

 Martin,Richard L.. 
 The Journal of Chemical Physics, 118 (11), 4775-4777 (2003). 
 Natural transition orbitals.
 https://doi.org/10.1063/1.1558471

 Lippert, G; Hutter, J; Parrinello, M. 
 THEORETICAL CHEMISTRY ACCOUNTS, 103 (2), 124-140 (1999). 
 The Gaussian and augmented-plane-wave density functional method for ab
 initio molecular dynamics simulations.
 https://doi.org/10.1007/s002140050523

 Krack, M; Parrinello, M. 
 PHYSICAL CHEMISTRY CHEMICAL PHYSICS, 2 (10), 2105-2112 (2000). 
 All-electron ab-initio molecular dynamics.
 https://doi.org/10.1039/b001167n

 Martyna, GJ; Tuckerman, ME. 
 JOURNAL OF CHEMICAL PHYSICS, 110 (6), 2810-2821 (1999). 
 A reciprocal space based method for treating long range interactions in
 ab initio and force-field-based calculations in clusters.
 https://doi.org/10.1063/1.477923

 Perdew, JP; Burke, K; Ernzerhof, M. 
 PHYSICAL REVIEW LETTERS, 77 (18), 3865-3868 (1996). 
 Generalized gradient approximation made simple.
 https://doi.org/10.1103/PhysRevLett.77.3865


 -------------------------------------------------------------------------------
 -                                                                             -
 -                                T I M I N G                                  -
 -                                                                             -
 -------------------------------------------------------------------------------
 SUBROUTINE                       CALLS  ASD         SELF TIME        TOTAL TIME
                                MAXIMUM       AVERAGE  MAXIMUM  AVERAGE  MAXIMUM
 CP2K                                 1  1.0    0.078    0.100 2686.491 2686.505
 qs_energies                          1  2.0    0.018    0.060 2684.070 2684.105
 qs_energies_properties               1  3.0    0.000    0.011 1982.252 1982.280
 tddfpt                               1  4.0    0.009    0.042 1982.252 1982.280
 tddfpt_soc_energies                  1  5.0    0.000    0.001 1974.699 1974.730
 tddfpt_energies                      2  6.0    0.001    0.018 1920.910 1920.935
 tddfpt_davidson_solver               4  7.0    0.005    0.026 1811.374 1811.402
 tddfpt_compute_Aop_evects           14  8.0    0.000    0.003 1342.509 1342.640
 fhxc_kernel                         14  9.0    0.005    0.015 1141.149 1141.230
 dbcsr_multiply_generic            1533 10.7    0.141    0.242 1062.732 1076.959
 cp_dbcsr_sm_fm_multiply            606  9.3    0.008    0.024  786.963  794.199
 scf_env_do_scf                       1  3.0    0.000    0.000  691.855  691.883
 scf_env_do_scf_inner_loop           27  4.0    0.003    0.029  652.656  652.683
 multiply_cannon                   1533 11.7    4.221    4.646  600.925  621.832
 multiply_cannon_loop              1533 12.7    0.830    1.138  537.322  558.236
 qs_scf_new_mos                      27  5.0    0.000    0.000  495.675  496.474
 qs_scf_loop_do_ot                   27  6.0    0.000    0.000  495.675  496.474
 pw_transfer                       3736 12.1    0.114    0.162  478.931  480.507
 fft_wrap_pw1pw2                   3443 13.2    0.010    0.019  478.438  480.064
 fft3d_ps                          3443 15.2    8.473   10.448  476.643  478.469
 multiply_cannon_multrec          24528 13.7  416.953  473.544  416.959  473.549
 ot_scf_mini                         27  7.0    0.000    0.011  472.071  472.825
 dbcsr_complete_redistribute       1750 11.4    0.086    0.593  368.770  374.871
 cp_dbcsr_sm_fm_multiply_core       606 10.3    0.001    0.014  351.071  361.973
 tddfpt_orthonormalize_psi1_psi      16  7.9    0.006    0.035  355.752  358.336
 ot_mini                             27  8.0    0.002    0.020  327.196  327.915
 copy_dbcsr_to_fm                   682 10.2    0.006    0.022  314.955  321.653
 qs_rho_update_rho_low              170  9.2    0.005    0.015  301.784  303.842
 mp_sum_l                          6698 11.1  285.247  294.743  285.247  294.743
 mp_alltoall_z22v                  3443 17.2  271.465  276.480  271.465  276.480
 cp_dbcsr_plus_fm_fm_t_native       141 10.0    0.002    0.013  273.420  275.462
 qs_ot_get_derivative                27  9.0    0.000    0.000  269.828  271.015
 calculate_rho_elec                 170 10.2    0.023    0.041  264.902  266.843
 fft_wrap_pw1pw2_600               2094 14.3    0.183    0.249  245.053  246.645
 mp_waitall_1                    262021 14.5  170.993  245.079  170.993  245.079
 integrate_v_rspace                 167  9.8    0.003    0.027  231.685  235.587
 density_rs2pw                      170 11.2    0.006    0.016  227.208  228.014
 potential_pw2rs                    167 10.8    0.006    0.035  222.992  223.304
 copy_fm_to_dbcsr                  1068 10.6    0.003    0.014  214.867  222.545
 mp_alltoall_i22                   2464 12.3  191.391  203.562  191.391  203.562
 tddfpt_apply_energy_diff            14  9.0    0.000    0.001  201.360  201.464
 mp_alltoall_d11v                  7729 12.6  168.972  191.857  168.972  191.857
 mp_sum_dv                         4519 10.2  168.903  174.095  168.903  174.095
 dbcsr_desymmetrize_deep            683 11.2    0.013    0.062  160.621  168.733
 multiply_cannon_metrocomm3       24528 13.7    0.042    0.069   97.396  163.839
 cp_fm_trace_a1b1t1_aa             3880  9.0    8.553   12.722  154.647  156.803
 qs_ot_get_derivative_diag           19 10.0    0.000    0.000  155.490  156.454
 mp_alltoall_z11v                  1011 17.0  150.432  152.385  150.432  152.385
 xc_pw_derive                      1221 11.7    0.005    0.007  138.818  139.704
 tddfpt_apply_xc_analytic           140 10.0    0.063    0.137  137.175  137.527
 make_m2s                          3066 11.7    0.028    0.039  125.956  133.702
 make_images                       3066 12.7    8.683    9.426  125.250  131.208
 tddfpt_compute_residual_vects       10  8.0    0.000    0.001  129.578  129.932
 x_to_yz                           1154 16.0    3.421    4.114  126.480  127.768
 make_images_sizes                 3066 13.7    0.004    0.024  115.664  118.224
 mp_alltoall_i44                   3066 14.7  115.660  118.222  115.660  118.222
 qs_ks_update_qs_env                 29  5.0    0.000    0.000  116.133  117.050
 rebuild_ks_matrix                   27  6.0    0.001    0.013  116.019  116.944
 qs_ks_build_kohn_sham_matrix        27  7.0    0.007    0.027  116.017  116.936
 yz_to_x                            941 16.8    0.201    0.320  110.856  112.543
 transfer_rs2pw                     950 12.1    0.006    0.017   98.683   99.587
 transfer_pw2rs                     933 11.8    0.004    0.014   98.616   99.572
 xz_to_yz                           680 16.2    1.739    2.001   95.670   97.210
 yz_to_xz                           668 15.8    1.675    1.981   94.952   96.878
 mp_alltoall_i11v                  6026 12.4   94.017   96.635   94.017   96.635
 mp_waitany                       77040 13.7   90.998   94.161   90.998   94.161
 qs_ot_get_p                         29  7.9    0.000    0.000   90.176   90.853
 xc_pw_divergence                   167 11.7    0.002    0.003   79.067   79.882
 fft_wrap_pw1pw2_70                 337 14.0    0.003    0.014   78.131   78.941
 mp_cart_sub                       1374 12.2   70.285   73.508   70.285   73.508
 tddfpt_print_nto_analysis            2  7.0    0.002    0.014   69.934   70.314
 xc_calc_2nd_deriv_analytical       700 11.0    1.793    2.647   68.224   68.765
 transfer_rs2pw_600                 270 12.9   10.274   11.213   65.410   66.234
 prepare_gapw_den                   169  9.7    0.006    0.016   62.285   62.452
 mp_sum_dm                          991 11.0   60.808   62.023   60.808   62.023
 fft_wrap_pw1pw2_30                 337 14.0    0.002    0.002   60.194   61.049
 mp_allgather_i34                  1533 12.7   58.172   59.335   58.172   59.335
 transfer_pw2rs_600                 265 12.6   11.796   13.607   54.352   58.108
 multiply_cannon_metrocomm1       24528 13.7    0.021    0.040   21.644   56.536
 mp_sum_d                          1497  7.9   53.708   56.517   53.708   56.517
 tddfpt_apply_coulomb                70 10.0    0.001    0.001   54.028   54.348
 -------------------------------------------------------------------------------

 The number of warnings for this run is : 1
 
 -------------------------------------------------------------------------------
  **** **** ******  **  PROGRAM ENDED AT                 2024-01-12 14:53:36.830
 ***** ** ***  *** **   PROGRAM RAN ON                               nesh-srp104
 **    ****   ******    PROGRAM RAN BY                                  suphc355
 ***** **    ** ** **   PROGRAM PROCESS ID                               2628070
  **** **  *******  **  PROGRAM STOPPED IN /gxfs_work/cau/suphc355/homologes/HX/
                                           AE/Cl
