
                                 *****************
                                 * O   R   C   A *
                                 *****************

                                            #,                                       
                                            ###                                      
                                            ####                                     
                                            #####                                    
                                            ######                                   
                                           ########,                                 
                                     ,,################,,,,,                         
                               ,,#################################,,                 
                          ,,##########################################,,             
                       ,#########################################, ''#####,          
                    ,#############################################,,   '####,        
                  ,##################################################,,,,####,       
                ,###########''''           ''''###############################       
              ,#####''   ,,,,##########,,,,          '''####'''          '####       
            ,##' ,,,,###########################,,,                        '##       
           ' ,,###''''                  '''############,,,                           
         ,,##''                                '''############,,,,        ,,,,,,###''
      ,#''                                            '''#######################'''  
     '                                                          ''''####''''         
             ,#######,   #######,   ,#######,      ##                                
            ,#'     '#,  ##    ##  ,#'     '#,    #''#        ######   ,####,        
            ##       ##  ##   ,#'  ##            #'  '#       #        #'  '#        
            ##       ##  #######   ##           ,######,      #####,   #    #        
            '#,     ,#'  ##    ##  '#,     ,#' ,#      #,         ##   #,  ,#        
             '#######'   ##     ##  '#######'  #'      '#     #####' # '####'        



                  #######################################################
                  #                        -***-                        #
                  #          Department of theory and spectroscopy      #
                  #    Directorship and core code : Frank Neese         #
                  #        Max Planck Institute fuer Kohlenforschung    #
                  #                Kaiser Wilhelm Platz 1               #
                  #                 D-45470 Muelheim/Ruhr               #
                  #                      Germany                        #
                  #                                                     #
                  #                  All rights reserved                #
                  #                        -***-                        #
                  #######################################################


                         Program Version 5.0.4 -  RELEASE  -


 With contributions from (in alphabetic order):
   Daniel Aravena         : Magnetic Suceptibility
   Michael Atanasov       : Ab Initio Ligand Field Theory (pilot matlab implementation)
   Alexander A. Auer      : GIAO ZORA, VPT2 properties, NMR spectrum
   Ute Becker             : Parallelization
   Giovanni Bistoni       : ED, misc. LED, open-shell LED, HFLD
   Martin Brehm           : Molecular dynamics
   Dmytro Bykov           : SCF Hessian
   Vijay G. Chilkuri      : MRCI spin determinant printing, contributions to CSF-ICE
   Dipayan Datta          : RHF DLPNO-CCSD density
   Achintya Kumar Dutta   : EOM-CC, STEOM-CC
   Dmitry Ganyushin       : Spin-Orbit,Spin-Spin,Magnetic field MRCI
   Miquel Garcia          : C-PCM and meta-GGA Hessian, CC/C-PCM, Gaussian charge scheme
   Yang Guo               : DLPNO-NEVPT2, F12-NEVPT2, CIM, IAO-localization
   Andreas Hansen         : Spin unrestricted coupled pair/coupled cluster methods
   Benjamin Helmich-Paris : MC-RPA, TRAH-SCF, COSX integrals
   Lee Huntington         : MR-EOM, pCC
   Robert Izsak           : Overlap fitted RIJCOSX, COSX-SCS-MP3, EOM
   Marcus Kettner         : VPT2
   Christian Kollmar      : KDIIS, OOCD, Brueckner-CCSD(T), CCSD density, CASPT2, CASPT2-K
   Simone Kossmann        : Meta GGA functionals, TD-DFT gradient, OOMP2, MP2 Hessian
   Martin Krupicka        : Initial AUTO-CI
   Lucas Lang             : DCDCAS
   Marvin Lechner         : AUTO-CI (C++ implementation), FIC-MRCC
   Dagmar Lenk            : GEPOL surface, SMD
   Dimitrios Liakos       : Extrapolation schemes; Compound Job, initial MDCI parallelization
   Dimitrios Manganas     : Further ROCIS development; embedding schemes
   Dimitrios Pantazis     : SARC Basis sets
   Anastasios Papadopoulos: AUTO-CI, single reference methods and gradients
   Taras Petrenko         : DFT Hessian,TD-DFT gradient, ASA, ECA, R-Raman, ABS, FL, XAS/XES, NRVS
   Peter Pinski           : DLPNO-MP2, DLPNO-MP2 Gradient
   Christoph Reimann      : Effective Core Potentials
   Marius Retegan         : Local ZFS, SOC
   Christoph Riplinger    : Optimizer, TS searches, QM/MM, DLPNO-CCSD(T), (RO)-DLPNO pert. Triples
   Tobias Risthaus        : Range-separated hybrids, TD-DFT gradient, RPA, STAB
   Michael Roemelt        : Original ROCIS implementation
   Masaaki Saitow         : Open-shell DLPNO-CCSD energy and density
   Barbara Sandhoefer     : DKH picture change effects
   Avijit Sen             : IP-ROCIS
   Kantharuban Sivalingam : CASSCF convergence, NEVPT2, FIC-MRCI
   Bernardo de Souza      : ESD, SOC TD-DFT
   Georgi Stoychev        : AutoAux, RI-MP2 NMR, DLPNO-MP2 response
   Willem Van den Heuvel  : Paramagnetic NMR
   Boris Wezisla          : Elementary symmetry handling
   Frank Wennmohs         : Technical directorship


 We gratefully acknowledge several colleagues who have allowed us to
 interface, adapt or use parts of their codes:
   Stefan Grimme, W. Hujo, H. Kruse, P. Pracht,  : VdW corrections, initial TS optimization,
                  C. Bannwarth, S. Ehlert          DFT functionals, gCP, sTDA/sTD-DF
   Ed Valeev, F. Pavosevic, A. Kumar             : LibInt (2-el integral package), F12 methods
   Garnet Chan, S. Sharma, J. Yang, R. Olivares  : DMRG
   Ulf Ekstrom                                   : XCFun DFT Library
   Mihaly Kallay                                 : mrcc  (arbitrary order and MRCC methods)
   Jiri Pittner, Ondrej Demel                    : Mk-CCSD
   Frank Weinhold                                : gennbo (NPA and NBO analysis)
   Christopher J. Cramer and Donald G. Truhlar   : smd solvation model
   Lars Goerigk                                  : TD-DFT with DH, B97 family of functionals
   V. Asgeirsson, H. Jonsson                     : NEB implementation
   FAccTs GmbH                                   : IRC, NEB, NEB-TS, DLPNO-Multilevel, CI-OPT
                                                   MM, QMMM, 2- and 3-layer-ONIOM, Crystal-QMMM,
                                                   LR-CPCM, SF, NACMEs, symmetry and pop. for TD-DFT,
                                                   nearIR, NL-DFT gradient (VV10), updates on ESD,
                                                   ML-optimized integration grids
   S Lehtola, MJT Oliveira, MAL Marques          : LibXC Library
   Liviu Ungur et al                             : ANISO software


 Your calculation uses the libint2 library for the computation of 2-el integrals
 For citations please refer to: http://libint.valeyev.net

 Your ORCA version has been built with support for libXC version: 5.1.0
 For citations please refer to: https://tddft.org/programs/libxc/

 This ORCA versions uses:
   CBLAS   interface :  Fast vector & matrix operations
   LAPACKE interface :  Fast linear algebra routines
   SCALAPACK package :  Parallel linear algebra routines
   Shared memory     :  Shared parallel matrices
   BLAS/LAPACK       :  OpenBLAS 0.3.15  USE64BITINT DYNAMIC_ARCH NO_AFFINITY SkylakeX SINGLE_THREADED
        Core in use  :  SkylakeX
   Copyright (c) 2011-2014, The OpenBLAS Project


Reading of a custom orbital basis requested
Basis file: ../../../basis_orca
READING GTO-BASIS: HYDROGEN
READING GTO-BASIS: CARBON
READING GTO-BASIS: OXYGEN
READING GTO-BASIS: FLUORINE
READING GTO-BASIS: SULFUR
READING GTO-BASIS: CHLORINE
READING GTO-BASIS: SELENIUM
READING GTO-BASIS: BROMINE
READING GTO-BASIS: TELLURIUM
READING GTO-BASIS: IODINE
Basis read successfully!

================================================================================

----- Orbital basis set information -----
Basis read from file: ../../../basis_orca

================================================================================
                                        WARNINGS
                       Please study these warnings very carefully!
================================================================================

INFO   : Checking CIS options ...

WARNING: (CIS/TDDFT): Spin-orbit needs TRIPLETS set to TRUE
  ===> : ajusting flags

WARNING: CIS/ROCIS methods need fully converged wavefunctions
  ===> : Setting SCFConvForced true
         You can overwrite this default with %scf ConvForced false 


INFO   : the flag for use of the SHARK integral package has been found!

================================================================================
                                       INPUT FILE
================================================================================
NAME = orca.inp
|  1> !PBE0 nososcf NoRI
|  2> %SCF Guess HCore
|  3>      DIISMaxIt -1
|  4> end
|  5> %TDDFT NROOTS 10
|  6>        DOSOC TRUE
|  7> end
|  8> %basis
|  9>         GTOName "../../../basis_orca"
| 10> end
| 11> * xyz 0 1 
| 12> Br         2.8790054817        3.9999999776        4.0000001317
| 13>  Br         5.1209945183        4.0000000224        3.9999998683
| 14> *
| 15> 
| 16>                          ****END OF INPUT****
================================================================================

                       ****************************
                       * Single Point Calculation *
                       ****************************

---------------------------------
CARTESIAN COORDINATES (ANGSTROEM)
---------------------------------
  Br     2.879005    4.000000    4.000000
  Br     5.120995    4.000000    4.000000

----------------------------
CARTESIAN COORDINATES (A.U.)
----------------------------
  NO LB      ZA    FRAG     MASS         X           Y           Z
   0 Br   35.0000    0    79.900    5.440532    7.558904    7.558905
   1 Br   35.0000    0    79.900    9.677277    7.558905    7.558904

--------------------------------
INTERNAL COORDINATES (ANGSTROEM)
--------------------------------
 Br     0   0   0     0.000000000000     0.00000000     0.00000000
 Br     1   0   0     2.241989036600     0.00000000     0.00000000

---------------------------
INTERNAL COORDINATES (A.U.)
---------------------------
 Br     0   0   0     0.000000000000     0.00000000     0.00000000
 Br     1   0   0     4.236745274428     0.00000000     0.00000000

---------------------
BASIS SET INFORMATION
---------------------
There are 1 groups of distinct atoms

 Group   1 Type Br  : 16s13p6d2f1g contracted to 9s6p3d2f1g pattern {711121111/712111/411/11/1}

Atom   0Br   basis set group =>   1
Atom   1Br   basis set group =>   1
------------------------------------------------------------------------------
                           ORCA GTO INTEGRAL CALCULATION
------------------------------------------------------------------------------
------------------------------------------------------------------------------
                   ___                                                        
                  /   \      - P O W E R E D   B Y -                         
                 /     \                                                     
                 |  |  |   _    _      __       _____    __    __             
                 |  |  |  | |  | |    /  \     |  _  \  |  |  /  |          
                  \  \/   | |  | |   /    \    | | | |  |  | /  /          
                 / \  \   | |__| |  /  /\  \   | |_| |  |  |/  /          
                |  |  |   |  __  | /  /__\  \  |    /   |      \           
                |  |  |   | |  | | |   __   |  |    \   |  |\   \          
                \     /   | |  | | |  |  |  |  | |\  \  |  | \   \       
                 \___/    |_|  |_| |__|  |__|  |_| \__\ |__|  \__/        
                                                                              
                      - O R C A' S   B I G   F R I E N D -                    
                                      &                                       
                       - I N T E G R A L  F E E D E R -                       
                                                                              
 v1 FN, 2020, v2 2021                                                         
------------------------------------------------------------------------------


Reading SHARK input file orca.SHARKINP.tmp ... ok
----------------------
SHARK INTEGRAL PACKAGE
----------------------

Number of atoms                             ...      2
Number of basis functions                   ...    130
Number of shells                            ...     42
Maximum angular momentum                    ...      4
Integral batch strategy                     ... SHARK/LIBINT Hybrid
RI-J (if used) integral strategy            ... SPLIT-RIJ (Revised 2003 algorithm where possible)
Printlevel                                  ...      1
Contraction scheme used                     ... SEGMENTED contraction
Coulomb Range Separation                    ... NOT USED
Exchange Range Separation                   ... NOT USED
Finite Nucleus Model                        ... NOT USED
Auxiliary Coulomb fitting basis             ... NOT available
Auxiliary J/K fitting basis                 ... NOT available
Auxiliary Correlation fitting basis         ... NOT available
Auxiliary 'external' fitting basis          ... NOT available
Integral threshold                          ...     1.000000e-10
Primitive cut-off                           ...     1.000000e-11
Primitive pair pre-selection threshold      ...     1.000000e-11

Calculating pre-screening integrals         ... done (  0.1 sec) Dimension = 42
Organizing shell pair data                  ... done (  0.0 sec)
Shell pair information
Total number of shell pairs                 ...       903
Shell pairs after pre-screening             ...       706
Total number of primitive shell pairs       ...      3026
Primitive shell pairs kept                  ...      2046
          la=0 lb=0:    125 shell pairs
          la=1 lb=0:    178 shell pairs
          la=1 lb=1:     70 shell pairs
          la=2 lb=0:     84 shell pairs
          la=2 lb=1:     64 shell pairs
          la=2 lb=2:     18 shell pairs
          la=3 lb=0:     46 shell pairs
          la=3 lb=1:     38 shell pairs
          la=3 lb=2:     18 shell pairs
          la=3 lb=3:      7 shell pairs
          la=4 lb=0:     24 shell pairs
          la=4 lb=1:     20 shell pairs
          la=4 lb=2:      8 shell pairs
          la=4 lb=3:      4 shell pairs
          la=4 lb=4:      2 shell pairs

Calculating one electron integrals          ... done (  0.0 sec)
Calculating Nuclear repulsion               ... done (  0.0 sec) ENN=    289.137042860192 Eh

SHARK setup successfully completed in   0.2 seconds

Maximum memory used throughout the entire GTOINT-calculation: 34.2 MB
-------------------------------------------------------------------------------
                                 ORCA SCF
-------------------------------------------------------------------------------

------------
SCF SETTINGS
------------
Hamiltonian:
 Density Functional     Method          .... DFT(GTOs)
 Exchange Functional    Exchange        .... PBE
   PBE kappa parameter   XKappa         ....  0.804000
   PBE mue parameter    XMuePBE         ....  0.219520
 Correlation Functional Correlation     .... PBE
   PBE beta parameter  CBetaPBE         ....  0.066725
 LDA part of GGA corr.  LDAOpt          .... PW91-LDA
 Gradients option       PostSCFGGA      .... off
 Hybrid DFT is turned on
   Fraction HF Exchange ScalHFX         ....  0.250000
   Scaling of DF-GGA-X  ScalDFX         ....  0.750000
   Scaling of DF-GGA-C  ScalDFC         ....  1.000000
   Scaling of DF-LDA-C  ScalLDAC        ....  1.000000
   Perturbative correction              ....  0.000000
   Density functional embedding theory  .... OFF
   NL short-range parameter             ....  6.900000


General Settings:
 Integral files         IntName         .... orca
 Hartree-Fock type      HFTyp           .... RHF
 Total Charge           Charge          ....    0
 Multiplicity           Mult            ....    1
 Number of Electrons    NEL             ....   70
 Basis Dimension        Dim             ....  130
 Nuclear Repulsion      ENuc            ....    289.1370428602 Eh

Convergence Acceleration:
 DIIS                   CNVDIIS         .... on
   Start iteration      DIISMaxIt       ....    -1
   Startup error        DIISStart       ....  0.200000
   # of expansion vecs  DIISMaxEq       ....     5
   Bias factor          DIISBfac        ....   1.050
   Max. coefficient     DIISMaxC        ....  10.000
 Trust-Rad. Augm. Hess. CNVTRAH         .... auto
   Auto Start mean grad. ratio tolernc. ....  1.125000
   Auto Start start iteration           ....    20
   Auto Start num. interpolation iter.  ....    10
   Max. Number of Micro iterations      ....    16
   Max. Number of Macro iterations      .... Maxiter - #DIIS iter
   Number of Davidson start vectors     ....     2
   Converg. threshold I  (grad. norm)   ....   5.000e-05
   Converg. threshold II (energy diff.) ....   1.000e-06
   Grad. Scal. Fac. for Micro threshold ....   0.100
   Minimum threshold for Micro iter.    ....   0.010
   NR start threshold (gradient norm)   ....   0.001
   Initial trust radius                 ....   0.400
   Minimum AH scaling param. (alpha)    ....   1.000
   Maximum AH scaling param. (alpha)    .... 1000.000
   Orbital update algorithm             .... Taylor
   White noise on init. David. guess    .... on
   Maximum white noise                  ....   0.010
   Quad. conv. algorithm                .... NR
 SOSCF                  CNVSOSCF        .... off
 Level Shifting         CNVShift        .... on
   Level shift para.    LevelShift      ....    0.2500
   Turn off err/grad.   ShiftErr        ....    0.0010
 Zerner damping         CNVZerner       .... off
 Static damping         CNVDamp         .... on
   Fraction old density DampFac         ....    0.7000
   Max. Damping (<1)    DampMax         ....    0.9800
   Min. Damping (>=0)   DampMin         ....    0.0000
   Turn off err/grad.   DampErr         ....    0.1000
 Fernandez-Rico         CNVRico         .... off

SCF Procedure:
 Maximum # iterations   MaxIter         ....   125
 SCF integral mode      SCFMode         .... Direct
   Integral package                     .... SHARK and LIBINT hybrid scheme
 Reset frequency        DirectResetFreq ....    20
 Integral Threshold     Thresh          ....  1.000e-10 Eh
 Primitive CutOff       TCut            ....  1.000e-11 Eh

Convergence Tolerance:
 Convergence Check Mode ConvCheckMode   .... Total+1el-Energy
 Convergence forced     ConvForced      .... 1
 Energy Change          TolE            ....  1.000e-06 Eh
 1-El. energy change                    ....  1.000e-03 Eh
 DIIS Error             TolErr          ....  1.000e-06


Diagonalization of the overlap matrix:
Smallest eigenvalue                        ... 1.058e-02
Time for diagonalization                   ...    0.002 sec
Threshold for overlap eigenvalues          ... 1.000e-08
Number of eigenvalues below threshold      ... 0
Time for construction of square roots      ...    0.002 sec
Total time needed                          ...    0.004 sec

--------------------
INITIAL GUESS: HCORE
--------------------
                      -----------------
                      INTIAL GUESS DONE 
                      -----------------
-------------------
DFT GRID GENERATION
-------------------

General Integration Accuracy     IntAcc      ... 4.388
Radial Grid Type                 RadialGrid  ... OptM3 with GC (2021)
Angular Grid (max. ang.)         AngularGrid ... 4 (Lebedev-302)
Angular grid pruning method      GridPruning ... 4 (adaptive)
Weight generation scheme         WeightScheme... Becke
Basis function cutoff            BFCut       ... 1.0000e-10
Integration weight cutoff        WCut        ... 1.0000e-14
Angular grids for H and He will be reduced by one unit
Partially contracted basis set               ... off
Rotationally invariant grid construction     ... off

Total number of grid points                  ...    22662
Total number of batches                      ...      356
Average number of points per batch           ...       63
Average number of grid points per atom       ...    11331
Time for grid setup =    0.203 sec

--------------
SCF ITERATIONS
--------------
ITER       Energy         Delta-E        Max-DP      RMS-DP      [F,P]     Damp
               ***  Starting incremental Fock matrix formation  ***
  0  -4697.2031367540   0.000000000000 4.58711869  0.14456643 12.5976807 0.7000
  1  -4876.6693461245-179.466209370567 1.54530252  0.05459876  8.0886974 0.7000
                               ***Turning on DIIS***
  2  -4961.3527163387 -84.683370214184 1.05286856  0.04132717  5.2492220 0.7000
  3  -5017.1834604730 -55.830744134300 0.80223572  0.02913603  3.4438736 0.7000
  4  -5055.5782099029 -38.394749429880 0.50431859  0.02017732  2.3851071 0.7000
  5  -5082.5668749266 -26.988665023688 0.33595119  0.01410301  1.6672380 0.7000
  6  -5101.4464781239 -18.879603197282 0.23608580  0.00987762  1.1673584 0.7000
  7  -5114.6456144440 -13.199136320126 0.16635884  0.00691466  0.8179189 0.7000
  8  -5123.8791980457  -9.233583601684 0.12046362  0.00484474  0.5712647 0.7000
  9  -5130.3354069704  -6.456208924749 0.08430915  0.00338998  0.3996002 0.7000
 10  -5134.8528418519  -4.517434881502 0.05816848  0.00237117  0.2794470 0.7000
 11  -5138.0141648794  -3.161323027500 0.04035801  0.00165958  0.1953309 0.7000
 12  -5140.2265829899  -2.212418110505 0.02823214  0.00116195  0.1364978 0.7000
 13  -5141.7750148640  -1.548431874113 0.06630976  0.00271217  0.0953734 0.0000
 14  -5145.3872199720  -3.612205107948 0.00015005  0.00000473  0.0004454 0.0000
 15  -5145.3872201127  -0.000000140765 0.00004249  0.00000119  0.0001577 0.0000
 16  -5145.3872201318  -0.000000019009 0.00003256  0.00000069  0.0000466 0.0000
                 **** Energy Check signals convergence ****

               *****************************************************
               *                     SUCCESS                       *
               *           SCF CONVERGED AFTER  17 CYCLES          *
               *****************************************************


----------------
TOTAL SCF ENERGY
----------------

Total Energy       :        -5145.38722014 Eh         -140013.10439 eV

Components:
Nuclear Repulsion  :          289.13704286 Eh            7867.81893 eV
Electronic Energy  :        -5434.52426300 Eh         -147880.92332 eV
One Electron Energy:        -7739.75308743 Eh         -210609.38868 eV
Two Electron Energy:         2305.22882444 Eh           62728.46537 eV

Virial components:
Potential Energy   :       -10313.20706879 Eh         -280636.63163 eV
Kinetic Energy     :         5167.81984866 Eh          140623.52724 eV
Virial Ratio       :            1.99565917


DFT components:
N(Alpha)           :       35.000002639513 electrons
N(Beta)            :       35.000002639513 electrons
N(Total)           :       70.000005279026 electrons
E(X)               :     -134.016802623656 Eh       
E(C)               :       -3.424649893758 Eh       
E(XC)              :     -137.441452517414 Eh       
DFET-embed. en.    :        0.000000000000 Eh       

---------------
SCF CONVERGENCE
---------------

  Last Energy change         ...   -3.5034e-09  Tolerance :   1.0000e-06
  Last MAX-Density change    ...    1.1497e-05  Tolerance :   1.0000e-05
  Last RMS-Density change    ...    2.3344e-07  Tolerance :   1.0000e-06
  Last DIIS Error            ...    8.2610e-06  Tolerance :   1.0000e-06

             **** THE GBW FILE WAS UPDATED (orca.gbw) ****
             **** DENSITY orca.scfp WAS UPDATED ****
             **** ENERGY FILE WAS UPDATED (orca.en.tmp) ****
             **** THE GBW FILE WAS UPDATED (orca.gbw) ****
             **** DENSITY orca.scfp WAS UPDATED ****
----------------
ORBITAL ENERGIES
----------------

  NO   OCC          E(Eh)            E(eV) 
   0   2.0000    -482.654634    -13133.7003 
   1   2.0000    -482.654624    -13133.7000 
   2   2.0000     -62.578084     -1702.8362 
   3   2.0000     -62.578073     -1702.8359 
   4   2.0000     -56.383647     -1534.2770 
   5   2.0000     -56.383642     -1534.2769 
   6   2.0000     -56.378362     -1534.1332 
   7   2.0000     -56.378362     -1534.1332 
   8   2.0000     -56.378356     -1534.1331 
   9   2.0000     -56.378356     -1534.1331 
  10   2.0000      -8.809005      -239.7052 
  11   2.0000      -8.808978      -239.7045 
  12   2.0000      -6.621711      -180.1859 
  13   2.0000      -6.621554      -180.1817 
  14   2.0000      -6.603076      -179.6788 
  15   2.0000      -6.603076      -179.6788 
  16   2.0000      -6.603068      -179.6786 
  17   2.0000      -6.603068      -179.6786 
  18   2.0000      -2.729174       -74.2646 
  19   2.0000      -2.726719       -74.1978 
  20   2.0000      -2.722922       -74.0945 
  21   2.0000      -2.722922       -74.0945 
  22   2.0000      -2.722336       -74.0785 
  23   2.0000      -2.722336       -74.0785 
  24   2.0000      -2.707640       -73.6786 
  25   2.0000      -2.707624       -73.6782 
  26   2.0000      -2.707607       -73.6777 
  27   2.0000      -2.707591       -73.6773 
  28   2.0000      -0.902807       -24.5666 
  29   2.0000      -0.754708       -20.5366 
  30   2.0000      -0.450946       -12.2709 
  31   2.0000      -0.389153       -10.5894 
  32   2.0000      -0.389153       -10.5894 
  33   2.0000      -0.299816        -8.1584 
  34   2.0000      -0.299816        -8.1584 
  35   0.0000      -0.129178        -3.5151 
  36   0.0000       0.237598         6.4654 
  37   0.0000       0.252169         6.8619 
  38   0.0000       0.259341         7.0570 
  39   0.0000       0.259341         7.0570 
  40   0.0000       0.302216         8.2237 
  41   0.0000       0.302216         8.2237 
  42   0.0000       0.440198        11.9784 
  43   0.0000       0.625829        17.0297 
  44   0.0000       1.479127        40.2491 
  45   0.0000       1.540308        41.9139 
  46   0.0000       1.605612        43.6909 
  47   0.0000       1.605612        43.6909 
  48   0.0000       1.656573        45.0777 
  49   0.0000       1.656573        45.0777 
  50   0.0000       1.661025        45.1988 
  51   0.0000       1.661059        45.1997 
  52   0.0000       1.663425        45.2641 
  53   0.0000       1.663459        45.2650 
  54   0.0000       1.737927        47.2914 
  55   0.0000       1.737927        47.2914 
  56   0.0000       1.835576        49.9486 
  57   0.0000       1.835576        49.9486 
  58   0.0000       1.919646        52.2362 
  59   0.0000       2.114394        57.5356 
  60   0.0000       6.416104       174.5911 
  61   0.0000       6.417734       174.6354 
  62   0.0000       6.417734       174.6354 
  63   0.0000       6.417932       174.6408 
  64   0.0000       6.417932       174.6408 
  65   0.0000       6.417946       174.6412 
  66   0.0000       6.428575       174.9304 
  67   0.0000       6.428577       174.9305 
  68   0.0000       6.428741       174.9349 
  69   0.0000       6.428744       174.9350 
  70   0.0000       6.446871       175.4283 
  71   0.0000       6.446871       175.4283 
  72   0.0000       6.446872       175.4283 
  73   0.0000       6.446872       175.4283 
  74   0.0000       6.886648       187.3952 
  75   0.0000       7.102144       193.2592 
  76   0.0000       9.732645       264.8387 
  77   0.0000       9.753273       265.4000 
  78   0.0000       9.753273       265.4000 
  79   0.0000       9.785186       266.2684 
  80   0.0000       9.785232       266.2697 
  81   0.0000       9.787253       266.3247 
  82   0.0000       9.787299       266.3259 
  83   0.0000       9.788819       266.3673 
  84   0.0000       9.788819       266.3673 
  85   0.0000       9.944850       270.6131 
  86   0.0000      18.193336       495.0658 
  87   0.0000      18.193336       495.0658 
  88   0.0000      18.219709       495.7835 
  89   0.0000      18.259677       496.8711 
  90   0.0000      18.259677       496.8711 
  91   0.0000      18.324035       498.6223 
  92   0.0000      27.386930       745.2362 
  93   0.0000      27.387575       745.2538 
  94   0.0000      27.387777       745.2593 
  95   0.0000      27.387777       745.2593 
  96   0.0000      27.387804       745.2600 
  97   0.0000      27.387804       745.2600 
  98   0.0000      27.393555       745.4165 
  99   0.0000      27.393558       745.4166 
 100   0.0000      27.393567       745.4168 
 101   0.0000      27.393569       745.4169 
 102   0.0000      27.403262       745.6807 
 103   0.0000      27.403262       745.6807 
 104   0.0000      27.403262       745.6807 
 105   0.0000      27.403262       745.6807 
 106   0.0000      29.985775       815.9544 
 107   0.0000      29.985779       815.9545 
 108   0.0000      29.987157       815.9920 
 109   0.0000      29.987157       815.9920 
 110   0.0000      29.987158       815.9920 
 111   0.0000      29.987158       815.9920 
 112   0.0000      29.990907       816.0941 
 113   0.0000      29.990907       816.0941 
 114   0.0000      29.991063       816.0983 
 115   0.0000      29.991063       816.0983 
 116   0.0000      29.997507       816.2737 
 117   0.0000      29.997507       816.2737 
 118   0.0000      29.997507       816.2737 
 119   0.0000      29.997507       816.2737 
 120   0.0000      30.006626       816.5218 
 121   0.0000      30.006626       816.5218 
 122   0.0000      30.006647       816.5224 
 123   0.0000      30.006647       816.5224 
 124   0.0000      99.563882      2709.2710 
 125   0.0000      99.759335      2714.5895 
 126   0.0000     584.259278     15898.5032 
 127   0.0000     584.433166     15903.2350 
 128   0.0000    3179.754914     86525.5301 
 129   0.0000    3179.948357     86530.7939 

                    ********************************
                    * MULLIKEN POPULATION ANALYSIS *
                    ********************************

-----------------------
MULLIKEN ATOMIC CHARGES
-----------------------
   0 Br:    0.000000
   1 Br:   -0.000000
Sum of atomic charges:   -0.0000000

--------------------------------
MULLIKEN REDUCED ORBITAL CHARGES
--------------------------------
  0 Brs       :     7.988987  s :     7.988987
      pz      :     5.998813  p :    17.004827
      px      :     5.007200
      py      :     5.998813
      dz2     :     2.000944  d :    10.006130
      dxz     :     2.001175
      dyz     :     1.999997
      dx2y2   :     2.002839
      dxy     :     2.001175
      f0      :     0.000005  f :     0.000056
      f+1     :     0.000012
      f-1     :     0.000001
      f+2     :     0.000008
      f-2     :     0.000003
      f+3     :     0.000017
      f-3     :     0.000011
      g0      :     0.000000  g :     0.000001
      g+1     :     0.000000
      g-1     :     0.000000
      g+2     :     0.000000
      g-2     :     0.000000
      g+3     :     0.000000
      g-3     :     0.000000
      g+4     :     0.000000
      g-4     :     0.000000
  1 Brs       :     7.988987  s :     7.988987
      pz      :     5.998813  p :    17.004827
      px      :     5.007200
      py      :     5.998813
      dz2     :     2.000944  d :    10.006130
      dxz     :     2.001175
      dyz     :     1.999997
      dx2y2   :     2.002839
      dxy     :     2.001175
      f0      :     0.000005  f :     0.000056
      f+1     :     0.000012
      f-1     :     0.000001
      f+2     :     0.000008
      f-2     :     0.000003
      f+3     :     0.000017
      f-3     :     0.000011
      g0      :     0.000000  g :     0.000001
      g+1     :     0.000000
      g-1     :     0.000000
      g+2     :     0.000000
      g-2     :     0.000000
      g+3     :     0.000000
      g-3     :     0.000000
      g+4     :     0.000000
      g-4     :     0.000000


                     *******************************
                     * LOEWDIN POPULATION ANALYSIS *
                     *******************************

----------------------
LOEWDIN ATOMIC CHARGES
----------------------
   0 Br:    0.000000
   1 Br:   -0.000000

-------------------------------
LOEWDIN REDUCED ORBITAL CHARGES
-------------------------------
  0 Brs       :     7.897238  s :     7.897238
      pz      :     5.998831  p :    17.096096
      px      :     5.098435
      py      :     5.998831
      dz2     :     2.001072  d :    10.006602
      dxz     :     2.001156
      dyz     :     1.999997
      dx2y2   :     2.003222
      dxy     :     2.001156
      f0      :     0.000005  f :     0.000062
      f+1     :     0.000013
      f-1     :     0.000001
      f+2     :     0.000008
      f-2     :     0.000003
      f+3     :     0.000020
      f-3     :     0.000012
      g0      :     0.000000  g :     0.000001
      g+1     :     0.000000
      g-1     :     0.000000
      g+2     :     0.000000
      g-2     :     0.000000
      g+3     :     0.000000
      g-3     :     0.000000
      g+4     :     0.000000
      g-4     :     0.000000
  1 Brs       :     7.897238  s :     7.897238
      pz      :     5.998831  p :    17.096096
      px      :     5.098435
      py      :     5.998831
      dz2     :     2.001072  d :    10.006602
      dxz     :     2.001156
      dyz     :     1.999997
      dx2y2   :     2.003222
      dxy     :     2.001156
      f0      :     0.000005  f :     0.000062
      f+1     :     0.000013
      f-1     :     0.000001
      f+2     :     0.000008
      f-2     :     0.000003
      f+3     :     0.000020
      f-3     :     0.000012
      g0      :     0.000000  g :     0.000001
      g+1     :     0.000000
      g-1     :     0.000000
      g+2     :     0.000000
      g-2     :     0.000000
      g+3     :     0.000000
      g-3     :     0.000000
      g+4     :     0.000000
      g-4     :     0.000000


                      *****************************
                      * MAYER POPULATION ANALYSIS *
                      *****************************

  NA   - Mulliken gross atomic population
  ZA   - Total nuclear charge
  QA   - Mulliken gross atomic charge
  VA   - Mayer's total valence
  BVA  - Mayer's bonded valence
  FA   - Mayer's free valence

  ATOM       NA         ZA         QA         VA         BVA        FA
  0 Br    35.0000    35.0000     0.0000     0.8874     0.8874    -0.0000
  1 Br    35.0000    35.0000    -0.0000     0.8874     0.8874    -0.0000

  Mayer bond orders larger than 0.100000
B(  0-Br,  1-Br) :   0.8874 

-------
TIMINGS
-------

Total SCF time: 0 days 0 hours 0 min 25 sec 

Total time                  ....      25.096 sec
Sum of individual times     ....      24.922 sec  ( 99.3%)

Fock matrix formation       ....      24.654 sec  ( 98.2%)
  XC integration            ....       2.413 sec  (  9.8% of F)
    Basis function eval.    ....       0.890 sec  ( 36.9% of XC)
    Density eval.           ....       0.397 sec  ( 16.4% of XC)
    XC-Functional eval.     ....       0.401 sec  ( 16.6% of XC)
    XC-Potential eval.      ....       0.622 sec  ( 25.8% of XC)
Diagonalization             ....       0.038 sec  (  0.2%)
Density matrix formation    ....       0.004 sec  (  0.0%)
Population analysis         ....       0.004 sec  (  0.0%)
Initial guess               ....       0.003 sec  (  0.0%)
Orbital Transformation      ....       0.000 sec  (  0.0%)
Orbital Orthonormalization  ....       0.000 sec  (  0.0%)
DIIS solution               ....       0.017 sec  (  0.1%)
Grid generation             ....       0.203 sec  (  0.8%)

Maximum memory used throughout the entire SCF-calculation: 259.3 MB
------------------------------------------------------------------------------
                        ORCA TD-DFT/TDA CALCULATION
------------------------------------------------------------------------------

Input orbitals are from        ... orca.gbw
CI-vector output               ... orca.cis
Tamm-Dancoff approximation     ... operative
CIS-Integral strategy          ... AO-integrals
Integral handling              ... AO integral Direct
Max. core memory used          ... 512 MB
Reference state                ... RHF
Generation of triplets         ... on
Follow IRoot                   ... off
Number of operators            ... 1
Orbital ranges used for CIS calculation:
 Operator 0:  Orbitals  18... 34  to  35...129
XAS localization array:
 Operator 0:  Orbitals  -1... -1

-------------------
XC-INTEGRATION GRID
-------------------

General Integration Accuracy     IntAcc      ... 3.467
Radial Grid Type                 RadialGrid  ... OptM3 with GC (2021)
Angular Grid (max. ang.)         AngularGrid ... 1 (Lebedev-50)
Angular grid pruning method      GridPruning ... 4 (adaptive)
Weight generation scheme         WeightScheme... Becke
Basis function cutoff            BFCut       ... 1.0000e-10
Integration weight cutoff        WCut        ... 1.0000e-14
Angular grids for H and He will be reduced by one unit
Partially contracted basis set               ... off
Rotationally invariant grid construction     ... off

Total number of grid points                  ...     8688
Total number of batches                      ...      136
Average number of points per batch           ...       63
Average number of grid points per atom       ...     4344

---------------
TD-DFT XC SETUP
---------------

DFT calculation                         ... on
Name of the grid file                   ... orca.grid_cis.tmp
Exchange functional (TD-DFT)            ... PBE
   PBE kappa parameter  XKappa (TD-DFT) ...  0.804000
   PBE mue parameter   XMuePBE (TD-DFT) ...  0.219520
Correlation functional (TD-DFT)         ... PBE
   PBE beta parameter CBetaPBE (TD-DFT) ...  0.066725
 LDA part of GGA corr.  LDAOpt (TD-DFT) ... PW91-LDA
Hybrid DFT                              ... on
   Exchange mixing (TD-DFT)             ...  0.250
   GGA exch. scaling (TD-DFT)           ...  0.750
   GGA corr. scaling (TD-DFT)           ...  1.000

Building densities             ... done
Calculating rho(r) on the grid ... done
Building xc-kernel on the grid ... done
                    *** TD-DFT CALCULATION INITIALIZED ***

------------------------
DAVIDSON-DIAGONALIZATION
------------------------

Dimension of the eigenvalue problem            ...   1615
Number of roots to be determined               ...     10
Maximum size of the expansion space            ...    100
Maximum number of iterations                   ...    100
Convergence tolerance for the residual         ...    1.000e-06
Convergence tolerance for the energies         ...    1.000e-06
Orthogonality tolerance                        ...    1.000e-14
Level Shift                                    ...    0.000e+00
Constructing the preconditioner                ... o.k.
Building the initial guess                     ... o.k.
Number of trial vectors determined             ...    100


                       ****Iteration    0****

   Memory handling for direct AO based CIS:
   Memory per vector needed      ...     1 MB
   Memory needed                 ...    11 MB
   Memory available              ...   512 MB
   Number of vectors per batch   ...   512
   Number of batches             ...     1
   Time for densities:            0.004
   SHARK[1a]
   Time for J+K (Direct):         5.369
   Time for XC-Integration:       0.754
   Time for Sigma-Completion:     0.004
   Size of expansion space: 30
   Lowest Energy          :     0.114775362201
   Maximum Energy change  :     0.499165095070 (vector 9)
   Maximum residual norm  :     0.011387062205

                       ****Iteration    1****
   Time for densities:            0.001
   SHARK[1a]
   Time for J+K (Direct):         2.873
   Time for XC-Integration:       0.283
   Time for Sigma-Completion:     0.002
   Size of expansion space: 40
   Lowest Energy          :     0.113467631580
   Maximum Energy change  :     0.005657637543 (vector 4)
   Maximum residual norm  :     0.000475996145

                       ****Iteration    2****
   Time for densities:            0.001
   SHARK[1a]
   Time for J+K (Direct):         2.882
   Time for XC-Integration:       0.283
   Time for Sigma-Completion:     0.002
   Size of expansion space: 50
   Lowest Energy          :     0.113455749823
   Maximum Energy change  :     0.000081743648 (vector 4)
   Maximum residual norm  :     0.000004474332

                       ****Iteration    3****
   Time for densities:            0.001
   SHARK[1a]
   Time for J+K (Direct):         2.874
   Time for XC-Integration:       0.284
   Time for Sigma-Completion:     0.002
   Size of expansion space: 60
   Lowest Energy          :     0.113455732018
   Maximum Energy change  :     0.000000695603 (vector 4)

         *** CONVERGENCE OF ENERGIES REACHED ***

Storing the converged CI vectors               ... orca.cis1

                 *** DAVIDSON DONE ***

Total time for solving the CIS problem:    18.506sec

------------------------------------
TD-DFT/TDA EXCITED STATES (SINGLETS)
------------------------------------

the weight of the individual excitations are printed if larger than 1.0e-02

STATE  1:  E=   0.113456 au      3.087 eV    24900.7 cm**-1 <S**2> =   0.000000
    34a ->  35a  :     0.998043 (c=  0.99902106)

STATE  2:  E=   0.113456 au      3.087 eV    24900.7 cm**-1 <S**2> =   0.000000
    33a ->  35a  :     0.998043 (c= -0.99902106)

STATE  3:  E=   0.198958 au      5.414 eV    43666.3 cm**-1 <S**2> =   0.000000
    32a ->  35a  :     0.998721 (c=  0.99936031)

STATE  4:  E=   0.198958 au      5.414 eV    43666.3 cm**-1 <S**2> =   0.000000
    31a ->  35a  :     0.998721 (c= -0.99936031)

STATE  5:  E=   0.366282 au      9.967 eV    80389.6 cm**-1 <S**2> =   0.000000
    30a ->  35a  :     0.859821 (c= -0.92726532)
    30a ->  36a  :     0.012325 (c=  0.11101833)
    33a ->  39a  :     0.052073 (c=  0.22819480)
    34a ->  38a  :     0.052035 (c= -0.22811285)

STATE  6:  E=   0.481919 au     13.114 eV   105769.0 cm**-1 <S**2> =   0.000000
    31a ->  37a  :     0.018447 (c= -0.13582053)
    34a ->  36a  :     0.978019 (c= -0.98894835)

STATE  7:  E=   0.481919 au     13.114 eV   105769.0 cm**-1 <S**2> =   0.000000
    32a ->  37a  :     0.018447 (c=  0.13582053)
    33a ->  36a  :     0.978019 (c= -0.98894835)

STATE  8:  E=   0.492339 au     13.397 eV   108055.8 cm**-1 <S**2> =   0.000000
    31a ->  36a  :     0.022916 (c= -0.15138039)
    34a ->  37a  :     0.973214 (c= -0.98651604)

STATE  9:  E=   0.492339 au     13.397 eV   108055.8 cm**-1 <S**2> =   0.000000
    32a ->  36a  :     0.022916 (c=  0.15138039)
    33a ->  37a  :     0.973214 (c= -0.98651604)

STATE 10:  E=   0.499026 au     13.579 eV   109523.6 cm**-1 <S**2> =   0.000000
    33a ->  38a  :     0.356147 (c=  0.59678038)
    33a ->  39a  :     0.138577 (c=  0.37225887)
    34a ->  38a  :     0.138850 (c=  0.37262571)
    34a ->  39a  :     0.357555 (c= -0.59795866)


                  ********************************
                  * Entering triplet calculation *
                  ********************************

------------------------
DAVIDSON-DIAGONALIZATION
------------------------

Dimension of the eigenvalue problem            ...   1615
Number of roots to be determined               ...     10
Maximum size of the expansion space            ...    100
Maximum number of iterations                   ...    100
Convergence tolerance for the residual         ...    1.000e-06
Convergence tolerance for the energies         ...    1.000e-06
Orthogonality tolerance                        ...    1.000e-14
Level Shift                                    ...    0.000e+00
Constructing the preconditioner                ... o.k.
Building the initial guess                     ... o.k.
Number of trial vectors determined             ...    100


                       ****Iteration    0****
                <<< Triplet sigma vectors requested >>>

   Memory handling for direct AO based CIS:
   Memory per vector needed      ...     1 MB
   Memory needed                 ...     7 MB
   Memory available              ...   512 MB
   Number of vectors per batch   ...   512
   Number of batches             ...     1
   Time for densities:            0.003
   SHARK[2G] - ScalHFX=    0.250 ScalHFX_loc=    1.000 facx=    1.000
   Time for K (Direct):           4.274
   Time for XC-Integration:       0.747
   Time for Sigma-Completion:     0.004
   Size of expansion space: 30
   Lowest Energy          :     0.083834720018
   Maximum Energy change  :     0.488046817598 (vector 9)
   Maximum residual norm  :     0.001873063528

                       ****Iteration    1****
   Time for densities:            0.001
   SHARK[2G] - ScalHFX=    0.250 ScalHFX_loc=    1.000 facx=    1.000
   Time for K (Direct):           2.378
   Time for XC-Integration:       0.281
   Time for Sigma-Completion:     1.657
   Size of expansion space: 40
   Lowest Energy          :     0.083146825133
   Maximum Energy change  :     0.002275941439 (vector 7)
   Maximum residual norm  :     0.000076248435

                       ****Iteration    2****
   Time for densities:            0.001
   SHARK[2G] - ScalHFX=    0.250 ScalHFX_loc=    1.000 facx=    1.000
   Time for K (Direct):           2.386
   Time for XC-Integration:       0.282
   Time for Sigma-Completion:     1.264
   Size of expansion space: 50
   Lowest Energy          :     0.083146013748
   Maximum Energy change  :     0.000064953397 (vector 7)
   Maximum residual norm  :     0.000002778037

                       ****Iteration    3****
   Time for densities:            0.001
   SHARK[2G] - ScalHFX=    0.250 ScalHFX_loc=    1.000 facx=    1.000
   Time for K (Direct):           2.399
   Time for XC-Integration:       0.283
   Time for Sigma-Completion:     0.002
   Size of expansion space: 60
   Lowest Energy          :     0.083146012796
   Maximum Energy change  :     0.000000667155 (vector 7)

         *** CONVERGENCE OF ENERGIES REACHED ***

Storing the converged CI vectors               ... orca.cis3

                 *** DAVIDSON DONE ***

------------------------------------
TD-DFT/TDA EXCITED STATES (TRIPLETS)
------------------------------------

the weight of the individual excitations are printed if larger than 1.0e-02

STATE  1:  E=   0.083146 au      2.263 eV    18248.4 cm**-1 <S**2> =   2.000000
    34a ->  35a  :     0.994468 (c= -0.99722995)

STATE  2:  E=   0.083146 au      2.263 eV    18248.4 cm**-1 <S**2> =   2.000000
    33a ->  35a  :     0.994468 (c=  0.99722995)

STATE  3:  E=   0.171734 au      4.673 eV    37691.2 cm**-1 <S**2> =   2.000000
    32a ->  35a  :     0.997347 (c= -0.99867245)

STATE  4:  E=   0.171734 au      4.673 eV    37691.2 cm**-1 <S**2> =   2.000000
    31a ->  35a  :     0.997347 (c= -0.99867245)

STATE  5:  E=   0.213835 au      5.819 eV    46931.4 cm**-1 <S**2> =   2.000000
    30a ->  35a  :     0.995749 (c= -0.99787236)

STATE  6:  E=   0.472966 au     12.870 eV   103804.0 cm**-1 <S**2> =   2.000000
    31a ->  37a  :     0.019936 (c=  0.14119431)
    34a ->  36a  :     0.972215 (c=  0.98600947)

STATE  7:  E=   0.472966 au     12.870 eV   103804.0 cm**-1 <S**2> =   2.000000
    32a ->  37a  :     0.019936 (c=  0.14119431)
    33a ->  36a  :     0.972215 (c= -0.98600947)

STATE  8:  E=   0.476336 au     12.962 eV   104543.6 cm**-1 <S**2> =   2.000000
    31a ->  40a  :     0.012894 (c=  0.11355208)
    32a ->  41a  :     0.012894 (c= -0.11355208)
    33a ->  38a  :     0.039941 (c=  0.19985330)
    33a ->  39a  :     0.438764 (c= -0.66239281)
    34a ->  38a  :     0.437757 (c=  0.66163171)
    34a ->  39a  :     0.039755 (c=  0.19938634)

STATE  9:  E=   0.487557 au     13.267 eV   107006.3 cm**-1 <S**2> =   2.000000
    31a ->  36a  :     0.035265 (c=  0.18778892)
    34a ->  37a  :     0.957727 (c=  0.97863515)

STATE 10:  E=   0.487557 au     13.267 eV   107006.3 cm**-1 <S**2> =   2.000000
    32a ->  36a  :     0.035265 (c= -0.18778892)
    33a ->  37a  :     0.957727 (c=  0.97863515)

------------------------------
TD-DFT/TDA SPIN-ORBIT COUPLING
------------------------------

Calculating the spin-orbit integrals:             

Loading the effective charges         ... done
Entering the SOC calc. section        ... 
------------------------------------------------------------------------------
                         ORCA SPIN-ORBIT COUPLING CALCULATION
------------------------------------------------------------------------------

GBW file                                    ... orca.gbw
Input density                               ... orca.cisp0
Output integrals                            ... orca.cis
Operator type                               ... Mean-field/Effective potential
   One-Electron Terms                       ... 1
   Coulomb Contribution                     ... 4
   Exchange Contribution                    ... 3
   Correlation Contribution                 ... 0
   Maximum number of centers                ... 4
SHARK 1-electron  MaxCenter=4               ... done (  0.0 sec)
Evaluating Coulomb term analytically        ... 
SHARK 2-electron DoJ,X=1,1 MaxCenter=4      ... done ( 24.3 sec)
Transforming the SOC integrals              ... done
Constructing the SOC matrix:                ... done
Diagonalizing the SOC matrix:               ... done

      --------------------------------------------------------------------------------
                      CALCULATED SOCME BETWEEN TRIPLETS AND SINGLETS                  
      --------------------------------------------------------------------------------
           Root                          <T|HSO|S>  (Re, Im) cm-1                     
         T      S             Z                     X                     Y           
      --------------------------------------------------------------------------------
         1      0    (   0.00 ,    0.00 )    (   0.00 ,   -0.00 )    (  -0.00 ,   -0.00 )
         1      1    (   0.00 ,   -0.00 )    (   0.00 ,  128.33 )    (  -0.00 ,   -0.00 )
         1      2    (   0.00 ,    0.00 )    (   0.00 , -1464.26 )    (  -0.00 ,    0.00 )
         1      3    (   0.00 ,   -0.00 )    (   0.00 ,   -0.00 )    (  -0.00 ,   -0.00 )
         1      4    (   0.00 ,   -0.00 )    (   0.00 ,   -0.00 )    (  -0.00 ,   -0.00 )
         1      5    (   0.00 , -1042.16 )    (   0.00 ,   -0.00 )    (  -0.00 , 1144.69 )
         1      6    (   0.00 ,    0.00 )    (   0.00 ,   -1.38 )    (  -0.00 ,    0.00 )
         1      7    (   0.00 ,   -0.00 )    (   0.00 ,  -30.72 )    (  -0.00 ,    0.00 )
         1      8    (   0.00 ,    0.00 )    (   0.00 ,    0.00 )    (  -0.00 ,    0.00 )
         1      9    (   0.00 ,   -0.00 )    (   0.00 ,    0.00 )    (  -0.00 ,    0.00 )
         1     10    (   0.00 ,  599.91 )    (   0.00 ,    0.00 )    (  -0.00 ,  402.28 )
         2      0    (   0.00 ,   -0.00 )    (   0.00 ,   -0.00 )    (  -0.00 ,   -0.00 )
         2      1    (   0.00 ,   -0.00 )    (   0.00 , 1464.26 )    (  -0.00 ,   -0.00 )
         2      2    (   0.00 ,   -0.00 )    (   0.00 ,  128.33 )    (  -0.00 ,   -0.00 )
         2      3    (   0.00 ,    0.00 )    (   0.00 ,    0.00 )    (  -0.00 ,    0.00 )
         2      4    (   0.00 ,    0.00 )    (   0.00 ,   -0.00 )    (  -0.00 ,   -0.00 )
         2      5    (   0.00 , 1144.92 )    (   0.00 ,    0.00 )    (  -0.00 , 1042.15 )
         2      6    (   0.00 ,   -0.00 )    (   0.00 ,  -30.72 )    (  -0.00 ,   -0.00 )
         2      7    (   0.00 ,   -0.00 )    (   0.00 ,    1.38 )    (  -0.00 ,   -0.00 )
         2      8    (   0.00 ,   -0.00 )    (   0.00 ,    0.00 )    (  -0.00 ,   -0.00 )
         2      9    (   0.00 ,   -0.00 )    (   0.00 ,   -0.00 )    (  -0.00 ,   -0.00 )
         2     10    (   0.00 , -401.44 )    (   0.00 ,   -0.00 )    (  -0.00 ,  598.97 )
         3      0    (   0.00 ,  824.87 )    (   0.00 ,    0.00 )    (  -0.00 , 1805.92 )
         3      1    (   0.00 ,    0.00 )    (   0.00 ,   -0.00 )    (  -0.00 ,    0.00 )
         3      2    (   0.00 ,   -0.00 )    (   0.00 ,    0.00 )    (  -0.00 ,   -0.00 )
         3      3    (   0.00 ,    0.00 )    (   0.00 ,   -6.82 )    (  -0.00 ,   -0.00 )
         3      4    (   0.00 ,    0.00 )    (   0.00 , -1254.76 )    (  -0.00 ,    0.00 )
         3      5    (   0.00 ,    0.00 )    (   0.00 ,   -0.00 )    (  -0.00 ,    0.00 )
         3      6    (   0.00 ,    0.00 )    (   0.00 ,    0.00 )    (  -0.00 ,    0.00 )
         3      7    (   0.00 ,   -0.00 )    (   0.00 ,    0.00 )    (  -0.00 ,   -0.00 )
         3      8    (   0.00 ,    0.00 )    (   0.00 ,   -2.61 )    (  -0.00 ,    0.00 )
         3      9    (   0.00 ,    0.00 )    (   0.00 ,   -0.95 )    (  -0.00 ,   -0.00 )
         3     10    (   0.00 ,    0.00 )    (   0.00 ,    0.00 )    (  -0.00 ,   -0.00 )
         4      0    (   0.00 , -1805.92 )    (   0.00 ,   -0.00 )    (  -0.00 ,  824.87 )
         4      1    (   0.00 ,   -0.00 )    (   0.00 ,    0.00 )    (  -0.00 ,    0.00 )
         4      2    (   0.00 ,    0.00 )    (   0.00 ,    0.00 )    (  -0.00 ,    0.00 )
         4      3    (   0.00 ,    0.00 )    (   0.00 , -1254.76 )    (  -0.00 ,    0.00 )
         4      4    (   0.00 ,   -0.00 )    (   0.00 ,    6.82 )    (  -0.00 ,   -0.00 )
         4      5    (   0.00 ,   -0.00 )    (   0.00 ,    0.00 )    (  -0.00 ,    0.00 )
         4      6    (   0.00 ,   -0.00 )    (   0.00 ,   -0.00 )    (  -0.00 ,   -0.00 )
         4      7    (   0.00 ,    0.00 )    (   0.00 ,    0.00 )    (  -0.00 ,   -0.00 )
         4      8    (   0.00 ,   -0.00 )    (   0.00 ,    0.95 )    (  -0.00 ,    0.00 )
         4      9    (   0.00 ,    0.00 )    (   0.00 ,   -2.61 )    (  -0.00 ,   -0.00 )
         4     10    (   0.00 ,   -0.00 )    (   0.00 ,   -0.00 )    (  -0.00 ,   -0.00 )
         5      0    (   0.00 ,    0.00 )    (   0.00 ,    0.00 )    (  -0.00 ,   -0.00 )
         5      1    (   0.00 , -1016.11 )    (   0.00 ,   -0.00 )    (  -0.00 ,  937.05 )
         5      2    (   0.00 ,  937.06 )    (   0.00 ,    0.00 )    (  -0.00 , 1016.12 )
         5      3    (   0.00 ,    0.00 )    (   0.00 ,    0.00 )    (  -0.00 ,    0.00 )
         5      4    (   0.00 ,    0.00 )    (   0.00 ,   -0.00 )    (  -0.00 ,   -0.00 )
         5      5    (   0.00 ,    0.00 )    (   0.00 ,   -0.00 )    (  -0.00 ,   -0.00 )
         5      6    (   0.00 ,   34.94 )    (   0.00 ,    0.00 )    (  -0.00 ,  -35.08 )
         5      7    (   0.00 ,   35.08 )    (   0.00 ,    0.00 )    (  -0.00 ,   34.94 )
         5      8    (   0.00 ,   -0.00 )    (   0.00 ,    0.00 )    (  -0.00 ,    0.00 )
         5      9    (   0.00 ,   -0.00 )    (   0.00 ,    0.00 )    (  -0.00 ,   -0.00 )
         5     10    (   0.00 ,   -0.00 )    (   0.00 ,    0.00 )    (  -0.00 ,    0.00 )
         6      0    (   0.00 ,    0.00 )    (   0.00 ,   -0.00 )    (  -0.00 ,   -0.00 )
         6      1    (   0.00 ,    0.00 )    (   0.00 ,    0.82 )    (  -0.00 ,   -0.00 )
         6      2    (   0.00 ,   -0.00 )    (   0.00 ,  -31.01 )    (  -0.00 ,   -0.00 )
         6      3    (   0.00 ,   -0.00 )    (   0.00 ,    0.00 )    (  -0.00 ,    0.00 )
         6      4    (   0.00 ,    0.00 )    (   0.00 ,    0.00 )    (  -0.00 ,   -0.00 )
         6      5    (   0.00 ,   19.30 )    (   0.00 ,   -0.00 )    (  -0.00 ,  -18.53 )
         6      6    (   0.00 ,   -0.00 )    (   0.00 ,  -23.57 )    (  -0.00 ,    0.00 )
         6      7    (   0.00 ,   -0.00 )    (   0.00 , 1463.39 )    (  -0.00 ,   -0.00 )
         6      8    (   0.00 ,   -0.00 )    (   0.00 ,    0.00 )    (  -0.00 ,   -0.00 )
         6      9    (   0.00 ,    0.00 )    (   0.00 ,   -0.00 )    (  -0.00 ,   -0.00 )
         6     10    (   0.00 , -431.03 )    (   0.00 ,   -0.00 )    (  -0.00 , -252.41 )
         7      0    (   0.00 ,   -0.00 )    (   0.00 ,    0.00 )    (  -0.00 ,   -0.00 )
         7      1    (   0.00 ,    0.00 )    (   0.00 ,   31.01 )    (  -0.00 ,   -0.00 )
         7      2    (   0.00 ,   -0.00 )    (   0.00 ,    0.82 )    (  -0.00 ,   -0.00 )
         7      3    (   0.00 ,    0.00 )    (   0.00 ,   -0.00 )    (  -0.00 ,    0.00 )
         7      4    (   0.00 ,    0.00 )    (   0.00 ,    0.00 )    (  -0.00 ,   -0.00 )
         7      5    (   0.00 ,  -18.76 )    (   0.00 ,    0.00 )    (  -0.00 ,  -19.32 )
         7      6    (   0.00 ,   -0.00 )    (   0.00 , 1463.39 )    (  -0.00 ,    0.00 )
         7      7    (   0.00 ,   -0.00 )    (   0.00 ,   23.57 )    (  -0.00 ,   -0.00 )
         7      8    (   0.00 ,    0.00 )    (   0.00 ,   -0.00 )    (  -0.00 ,   -0.00 )
         7      9    (   0.00 ,    0.00 )    (   0.00 ,   -0.00 )    (  -0.00 ,    0.00 )
         7     10    (   0.00 ,  251.85 )    (   0.00 ,    0.00 )    (  -0.00 , -430.49 )
         8      0    (   0.00 ,   -0.00 )    (   0.00 ,   -0.00 )    (  -0.00 ,   -0.00 )
         8      1    (   0.00 ,  523.35 )    (   0.00 ,    0.00 )    (  -0.00 , -482.40 )
         8      2    (   0.00 , -483.17 )    (   0.00 ,   -0.00 )    (  -0.00 , -523.78 )
         8      3    (   0.00 ,    0.00 )    (   0.00 ,    0.00 )    (  -0.00 ,    0.00 )
         8      4    (   0.00 ,   -0.00 )    (   0.00 ,   -0.00 )    (  -0.00 ,    0.00 )
         8      5    (   0.00 ,    0.00 )    (   0.00 ,    0.04 )    (  -0.00 ,    0.00 )
         8      6    (   0.00 , -293.27 )    (   0.00 ,   -0.00 )    (  -0.00 ,  294.32 )
         8      7    (   0.00 , -294.86 )    (   0.00 ,   -0.00 )    (  -0.00 , -293.61 )
         8      8    (   0.00 ,    0.00 )    (   0.00 ,    0.00 )    (  -0.00 ,   -0.00 )
         8      9    (   0.00 ,    0.00 )    (   0.00 ,    0.00 )    (  -0.00 ,    0.00 )
         8     10    (   0.00 ,   -0.00 )    (   0.00 ,    2.12 )    (  -0.00 ,    0.00 )
         9      0    (   0.00 ,  815.31 )    (   0.00 ,    0.00 )    (  -0.00 , -830.38 )
         9      1    (   0.00 ,   -0.00 )    (   0.00 ,   -0.00 )    (  -0.00 ,   -0.00 )
         9      2    (   0.00 ,    0.00 )    (   0.00 ,    0.00 )    (  -0.00 ,   -0.00 )
         9      3    (   0.00 ,    0.00 )    (   0.00 ,   -3.73 )    (  -0.00 ,    0.00 )
         9      4    (   0.00 ,    0.00 )    (   0.00 ,   -1.41 )    (  -0.00 ,    0.00 )
         9      5    (   0.00 ,   -0.00 )    (   0.00 ,   -0.00 )    (  -0.00 ,    0.00 )
         9      6    (   0.00 ,    0.00 )    (   0.00 ,    0.00 )    (  -0.00 ,    0.00 )
         9      7    (   0.00 ,    0.00 )    (   0.00 ,    0.00 )    (  -0.00 ,   -0.00 )
         9      8    (   0.00 ,   -0.00 )    (   0.00 ,   26.54 )    (  -0.00 ,   -0.00 )
         9      9    (   0.00 ,   -0.00 )    (   0.00 , 1461.34 )    (  -0.00 ,   -0.00 )
         9     10    (   0.00 ,    0.00 )    (   0.00 ,   -0.00 )    (  -0.00 ,    0.00 )
        10      0    (   0.00 ,  830.38 )    (   0.00 ,    0.00 )    (  -0.00 ,  815.31 )
        10      1    (   0.00 ,    0.00 )    (   0.00 ,    0.00 )    (  -0.00 ,   -0.00 )
        10      2    (   0.00 ,    0.00 )    (   0.00 ,    0.00 )    (  -0.00 ,    0.00 )
        10      3    (   0.00 ,   -0.00 )    (   0.00 ,   -1.41 )    (  -0.00 ,   -0.00 )
        10      4    (   0.00 ,   -0.00 )    (   0.00 ,    3.73 )    (  -0.00 ,    0.00 )
        10      5    (   0.00 ,   -0.00 )    (   0.00 ,   -0.00 )    (  -0.00 ,   -0.00 )
        10      6    (   0.00 ,   -0.00 )    (   0.00 ,   -0.00 )    (  -0.00 ,    0.00 )
        10      7    (   0.00 ,    0.00 )    (   0.00 ,    0.00 )    (  -0.00 ,    0.00 )
        10      8    (   0.00 ,    0.00 )    (   0.00 , -1461.34 )    (  -0.00 ,    0.00 )
        10      9    (   0.00 ,   -0.00 )    (   0.00 ,   26.54 )    (  -0.00 ,   -0.00 )
        10     10    (   0.00 ,    0.00 )    (   0.00 ,   -0.00 )    (  -0.00 ,   -0.00 )

SOC stabilization of the ground state: -226.1707 cm-1
Eigenvalues of the SOC matrix:

   State:        cm-1         eV
     0:          0.00         0.0000
     1:      16992.96         2.1069
     2:      17004.19         2.1083
     3:      18116.00         2.2461
     4:      18116.01         2.2461
     5:      19792.15         2.4539
     6:      19866.13         2.4631
     7:      25311.07         3.1382
     8:      25311.09         3.1382
     9:      36662.16         4.5455
    10:      36662.16         4.5455
    11:      37664.53         4.6698
    12:      37664.53         4.6698
    13:      39172.52         4.8568
    14:      39373.70         4.8817
    15:      44145.27         5.4733
    16:      44145.27         5.4733
    17:      47298.55         5.8643
    18:      47319.86         5.8669
    19:      47319.87         5.8669
    20:      80694.60        10.0049
    21:     102499.39        12.7083
    22:     102567.99        12.7168
    23:     103010.94        12.7717
    24:     103011.08        12.7717
    25:     104327.41        12.9349
    26:     105012.31        13.0199
    27:     105012.55        13.0199
    28:     105492.32        13.0794
    29:     105772.20        13.1141
    30:     105772.20        13.1141
    31:     105946.55        13.1357
    32:     106204.32        13.1677
    33:     106204.32        13.1677
    34:     106783.66        13.2395
    35:     106783.77        13.2395
    36:     108692.84        13.4762
    37:     108717.83        13.4793
    38:     109310.18        13.5527
    39:     109310.18        13.5527
    40:     109829.59        13.6171

The threshold for printing is 0.0100
Eigenvectors of the SOC matrix:

             E(cm-1)  Weight      Real         Imag     : Root  Spin  Ms
 STATE  0:      0.00
                      0.99466     -0.99733     -0.00000 : 0     0     0
 STATE  1:  16992.96
                      0.34492     -0.58730      0.00142 : 1     1     0
                      0.15502      0.39372     -0.00095 : 2     1     0
                      0.07751      0.00067      0.27840 : 1     1    -1
                      0.17246      0.00101      0.41528 : 2     1    -1
                      0.07751      0.00067      0.27840 : 1     1     1
                      0.17246      0.00101      0.41528 : 2     1     1
 STATE  2:  17004.19
                      0.15503     -0.39374      0.00001 : 1     1     0
                      0.34497     -0.58734      0.00001 : 2     1     0
                      0.17248     -0.00001     -0.41531 : 1     1    -1
                      0.07752      0.00000      0.27842 : 2     1    -1
                      0.17248     -0.00001     -0.41531 : 1     1     1
                      0.07752      0.00000      0.27842 : 2     1     1
 STATE  3:  18116.00
                      0.03859      0.19645      0.00088 : 1     0     0
                      0.47709      0.00309     -0.69071 : 2     1    -1
                      0.47709     -0.00309      0.69071 : 2     1     1
 STATE  4:  18116.01
                      0.03859     -0.19645     -0.00001 : 2     0     0
                      0.47709      0.00005     -0.69072 : 1     1    -1
                      0.47709     -0.00005      0.69072 : 1     1     1
 STATE  5:  19792.15
                      0.27204      0.52141      0.01318 : 1     1     0
                      0.22533      0.47453      0.01199 : 2     1     0
                      0.11266      0.00848     -0.33555 : 1     1    -1
                      0.13602     -0.00932      0.36869 : 2     1    -1
                      0.11266      0.00848     -0.33555 : 1     1     1
                      0.13602     -0.00932      0.36869 : 2     1     1
 STATE  6:  19866.13
                      0.22622      0.47558      0.00684 : 1     1     0
                      0.27312     -0.52256     -0.00752 : 2     1     0
                      0.13656     -0.00532      0.36951 : 1     1    -1
                      0.11311     -0.00484      0.33629 : 2     1    -1
                      0.13656     -0.00532      0.36951 : 1     1     1
                      0.11311     -0.00484      0.33629 : 2     1     1
 STATE  7:  25311.07
                      0.02369     -0.15391      0.00021 : 1     0     0
                      0.93238      0.96560     -0.00134 : 2     0     0
                      0.01908     -0.00019     -0.13815 : 1     1    -1
                      0.01908      0.00019      0.13815 : 1     1     1
 STATE  8:  25311.09
                      0.93238     -0.96468      0.04201 : 1     0     0
                      0.02369     -0.15376      0.00670 : 2     0     0
                      0.01908     -0.00601     -0.13802 : 2     1    -1
                      0.01908      0.00601      0.13802 : 2     1     1
 STATE  9:  36662.16
                      0.06407     -0.00000     -0.25312 : 3     1     0
                      0.43593     -0.00000     -0.66025 : 4     1     0
                      0.21796     -0.46687      0.00000 : 3     1    -1
                      0.03204      0.17899     -0.00000 : 4     1    -1
                      0.21796     -0.46687      0.00000 : 3     1     1
                      0.03204      0.17899     -0.00000 : 4     1     1
 STATE 10:  36662.16
                      0.43593      0.02436     -0.65980 : 3     1     0
                      0.06407     -0.00934      0.25295 : 4     1     0
                      0.03204      0.17886      0.00661 : 3     1    -1
                      0.21796      0.46655      0.01723 : 4     1    -1
                      0.03204      0.17886      0.00661 : 3     1     1
                      0.21796      0.46655      0.01723 : 4     1     1
 STATE 11:  37664.53
                      0.03901      0.00000      0.19750 : 4     0     0
                      0.48050     -0.69318      0.00000 : 3     1    -1
                      0.48050      0.69318     -0.00000 : 3     1     1
 STATE 12:  37664.53
                      0.03901     -0.00000     -0.19750 : 3     0     0
                      0.48050      0.69318     -0.00001 : 4     1    -1
                      0.48050     -0.69318      0.00001 : 4     1     1
 STATE 13:  39172.52
                      0.41369      0.00001     -0.64319 : 3     1     0
                      0.08631      0.00000     -0.29378 : 4     1     0
                      0.04315      0.20774      0.00000 : 3     1    -1
                      0.20685     -0.45480     -0.00000 : 4     1    -1
                      0.04315      0.20774      0.00000 : 3     1     1
                      0.20685     -0.45480     -0.00000 : 4     1     1
 STATE 14:  39373.70
                      0.08587     -0.00000      0.29303 : 3     1     0
                      0.41158      0.00000     -0.64154 : 4     1     0
                      0.20579      0.45364      0.00000 : 3     1    -1
                      0.04293      0.20720     -0.00000 : 4     1    -1
                      0.20579      0.45364      0.00000 : 3     1     1
                      0.04293      0.20720      0.00000 : 4     1     1
 STATE 15:  44145.27
                      0.96099     -0.00000     -0.98030 : 3     0     0
                      0.01950     -0.13966      0.00000 : 4     1    -1
                      0.01950      0.13966     -0.00000 : 4     1     1
 STATE 16:  44145.27
                      0.96099     -0.00000     -0.98030 : 4     0     0
                      0.01950     -0.13966      0.00000 : 3     1    -1
                      0.01950      0.13966     -0.00000 : 3     1     1
 STATE 17:  47298.55
                      0.49744     -0.45900     -0.53550 : 5     1    -1
                      0.49744      0.45900      0.53550 : 5     1     1
 STATE 18:  47319.86
                      0.38102      0.22885      0.57328 : 5     1     0
                      0.30603     -0.51377      0.20510 : 5     1    -1
                      0.30603     -0.51377      0.20510 : 5     1     1
 STATE 19:  47319.87
                      0.61206      0.00899      0.78229 : 5     1     0
                      0.19051      0.43644     -0.00501 : 5     1    -1
                      0.19051      0.43644     -0.00501 : 5     1     1
 STATE 20:  80694.60
                      0.99870      0.96256      0.26866 : 5     0     0
 STATE 21: 102499.39
                      0.36890      0.60696     -0.02230 : 6     1     0
                      0.12641     -0.35530      0.01305 : 7     1     0
                      0.06319     -0.00923     -0.25120 : 6     1    -1
                      0.18448     -0.01577     -0.42922 : 7     1    -1
                      0.06319     -0.00923     -0.25120 : 6     1     1
                      0.18448     -0.01577     -0.42922 : 7     1     1
 STATE 22: 102567.99
                      0.12758      0.35719      0.00057 : 6     1     0
                      0.37242      0.61026      0.00097 : 7     1     0
                      0.18621     -0.00069      0.43152 : 6     1    -1
                      0.06379      0.00040     -0.25257 : 7     1    -1
                      0.18621     -0.00069      0.43152 : 6     1     1
                      0.06379      0.00040     -0.25257 : 7     1     1
 STATE 23: 103010.94
                      0.20119     -0.03650     -0.44705 : 6     0     0
                      0.04571      0.21308     -0.01740 : 8     1     0
                      0.33268     -0.57487      0.04693 : 7     1    -1
                      0.03670      0.01559      0.19093 : 8     1    -1
                      0.33268      0.57487     -0.04693 : 7     1     1
                      0.03670      0.01559      0.19093 : 8     1     1
 STATE 24: 103011.08
                      0.20126      0.44681     -0.04018 : 7     0     0
                      0.07336      0.02426      0.26977 : 8     1     0
                      0.33267     -0.05166     -0.57446 : 6     1    -1
                      0.02284      0.15054     -0.01354 : 8     1    -1
                      0.33267      0.05166      0.57446 : 6     1     1
                      0.02284      0.15054     -0.01354 : 8     1     1
 STATE 25: 104327.41
                      0.06825      0.05287     -0.25585 : 6     1     0
                      0.07207      0.05433     -0.26290 : 7     1     0
                      0.03609     -0.18605     -0.03844 : 6     1    -1
                      0.03403      0.18066      0.03733 : 7     1    -1
                      0.35966      0.12136     -0.58731 : 8     1    -1
                      0.03609     -0.18605     -0.03844 : 6     1     1
                      0.03403      0.18066      0.03733 : 7     1     1
                      0.35966     -0.12136      0.58731 : 8     1     1
 STATE 26: 105012.31
                      0.01062     -0.10144     -0.01824 : 7     0     0
                      0.54006     -0.13008      0.72328 : 8     1     0
                      0.05538     -0.04166      0.23161 : 6     1    -1
                      0.16818      0.40362      0.07259 : 8     1    -1
                      0.05538      0.04166     -0.23161 : 6     1     1
                      0.16818      0.40362      0.07259 : 8     1     1
 STATE 27: 105012.55
                      0.01071      0.02766     -0.09972 : 6     0     0
                      0.33636     -0.55887     -0.15500 : 8     1     0
                      0.05533     -0.22667     -0.06286 : 7     1    -1
                      0.27003      0.13888     -0.50074 : 8     1    -1
                      0.05533      0.22667      0.06286 : 7     1     1
                      0.27003      0.13888     -0.50074 : 8     1     1
 STATE 28: 105492.32
                      0.25707      0.50687     -0.01254 : 6     1     0
                      0.24293     -0.49273      0.01219 : 7     1     0
                      0.12146      0.00862      0.34841 : 6     1    -1
                      0.12854      0.00887      0.35841 : 7     1    -1
                      0.12146      0.00862      0.34841 : 6     1     1
                      0.12854      0.00887      0.35841 : 7     1     1
 STATE 29: 105772.20
                      0.49971      0.00011     -0.70690 : 10     1     0
                      0.24985     -0.49985     -0.00008 : 9     1    -1
                      0.24985     -0.49985     -0.00008 : 9     1     1
 STATE 30: 105772.20
                      0.49971      0.00000     -0.70690 : 9     1     0
                      0.24985      0.49985      0.00000 : 10     1    -1
                      0.24985      0.49985      0.00000 : 10     1     1
 STATE 31: 105946.55
                      0.17470     -0.41649      0.03505 : 6     1     0
                      0.18499     -0.42859      0.03607 : 7     1     0
                      0.09245      0.02550      0.30298 : 6     1    -1
                      0.08742     -0.02480     -0.29463 : 7     1    -1
                      0.14027      0.37320     -0.03141 : 8     1    -1
                      0.09245      0.02550      0.30298 : 6     1     1
                      0.08742     -0.02480     -0.29463 : 7     1     1
                      0.14027     -0.37320      0.03141 : 8     1     1
 STATE 32: 106204.32
                      0.33064     -0.00000      0.57502 : 9     0     0
                      0.33438      0.57826      0.00000 : 9     1    -1
                      0.33438     -0.57826     -0.00000 : 9     1     1
 STATE 33: 106204.32
                      0.33064      0.00000     -0.57502 : 8     0     0
                      0.33438      0.57826      0.00000 : 10     1    -1
                      0.33438     -0.57826      0.00000 : 10     1     1
 STATE 34: 106783.66
                      0.77486      0.49078      0.73075 : 6     0     0
                      0.01040     -0.05685     -0.08465 : 7     0     0
                      0.10340     -0.26694      0.17928 : 7     1    -1
                      0.10340      0.26694     -0.17928 : 7     1     1
 STATE 35: 106783.77
                      0.01040      0.10149      0.00990 : 6     0     0
                      0.77488      0.87612      0.08543 : 7     0     0
                      0.10336     -0.03120      0.31998 : 6     1    -1
                      0.10336      0.03120     -0.31998 : 6     1     1
 STATE 36: 108692.84
                      0.25458      0.00000      0.50456 : 9     1     0
                      0.24542     -0.00000     -0.49540 : 10     1     0
                      0.12271      0.35030      0.00000 : 9     1    -1
                      0.12729      0.35678     -0.00000 : 10     1    -1
                      0.12271      0.35030     -0.00000 : 9     1     1
                      0.12729      0.35678      0.00000 : 10     1     1
 STATE 37: 108717.83
                      0.24537      0.00000     -0.49534 : 9     1     0
                      0.25452      0.00000     -0.50450 : 10     1     0
                      0.12726      0.35673      0.00000 : 9     1    -1
                      0.12268     -0.35026     -0.00000 : 10     1    -1
                      0.12726      0.35673      0.00000 : 9     1     1
                      0.12268     -0.35026      0.00000 : 10     1     1
 STATE 38: 109310.18
                      0.66874     -0.00000      0.81777 : 8     0     0
                      0.16531      0.40659      0.00000 : 10     1    -1
                      0.16531     -0.40659      0.00000 : 10     1     1
 STATE 39: 109310.18
                      0.66874     -0.00000      0.81777 : 9     0     0
                      0.16531     -0.40659     -0.00000 : 9     1    -1
                      0.16531      0.40659      0.00000 : 9     1     1
 STATE 40: 109829.59
                      0.99052      0.03556      0.99461 : 10     0     0

-----------------------------
TD-DFT/TDA-EXCITATION SPECTRA
-----------------------------

Center of mass = (  7.5589,  7.5589,  7.5589)
Calculating the Dipole integrals                  ... done
Transforming integrals                            ... done
Calculating the Linear Momentum integrals         ... done
Transforming integrals                            ... done
Calculating angular momentum integrals            ... done
Transforming integrals                            ... done

-----------------------------------------------------------------------------
         ABSORPTION SPECTRUM VIA TRANSITION ELECTRIC DIPOLE MOMENTS
-----------------------------------------------------------------------------
State   Energy    Wavelength  fosc         T2        TX        TY        TZ  
        (cm-1)      (nm)                 (au**2)    (au)      (au)      (au) 
-----------------------------------------------------------------------------
   1   24900.7    401.6   0.000062260   0.00082  -0.00000   0.02109  -0.01945
   2   24900.7    401.6   0.000062260   0.00082  -0.00000  -0.01945  -0.02109
   3   43666.3    229.0   0.000000000   0.00000   0.00000  -0.00000  -0.00000
   4   43666.3    229.0   0.000000000   0.00000   0.00000  -0.00000   0.00000
   5   80389.6    124.4   2.134908949   8.74289   2.95684   0.00000  -0.00000
   6  105769.0     94.5   0.083342888   0.25941  -0.00000   0.35941  -0.36088
   7  105769.0     94.5   0.083342888   0.25941   0.00000   0.36088   0.35941
   8  108055.8     92.5   0.000000000   0.00000  -0.00000  -0.00000   0.00000
   9  108055.8     92.5   0.000000000   0.00000   0.00000  -0.00000  -0.00000
  10  109523.6     91.3   0.000000000   0.00000   0.00003   0.00000   0.00000
  11   18248.4    548.0   spin forbidden (mult=3)
  12   18248.4    548.0   spin forbidden (mult=3)
  13   37691.2    265.3   spin forbidden (mult=3)
  14   37691.2    265.3   spin forbidden (mult=3)
  15   46931.4    213.1   spin forbidden (mult=3)
  16  103804.0     96.3   spin forbidden (mult=3)
  17  103804.0     96.3   spin forbidden (mult=3)
  18  104543.6     95.7   spin forbidden (mult=3)
  19  107006.3     93.5   spin forbidden (mult=3)
  20  107006.3     93.5   spin forbidden (mult=3)

-----------------------------------------------------------------------------
         ABSORPTION SPECTRUM VIA TRANSITION VELOCITY DIPOLE MOMENTS
-----------------------------------------------------------------------------
State   Energy    Wavelength   fosc        P2         PX        PY        PZ  
        (cm-1)      (nm)                 (au**2)     (au)      (au)      (au) 
-----------------------------------------------------------------------------
   1   24900.7    401.6   0.060179298   0.01024   0.00000  -0.07439   0.06861
   2   24900.7    401.6   0.060179298   0.01024   0.00000   0.06861   0.07439
   3   43666.3    229.0   0.000000000   0.00000  -0.00000   0.00000   0.00000
   4   43666.3    229.0   0.000000000   0.00000   0.00000   0.00000  -0.00000
   5   80389.6    124.4   0.715567017   0.39315  -0.62702  -0.00000   0.00000
   6  105769.0     94.5   0.049746802   0.03596   0.00000  -0.13382   0.13436
   7  105769.0     94.5   0.049746802   0.03596  -0.00000  -0.13436  -0.13382
   8  108055.8     92.5   0.000000000   0.00000   0.00000   0.00000  -0.00000
   9  108055.8     92.5   0.000000000   0.00000  -0.00000   0.00000   0.00000
  10  109523.6     91.3   0.000000000   0.00000  -0.00000  -0.00000  -0.00000
[...]
   0  27  105012.6     95.2   0.001007164   0.00316 (  0.00000, -0.00000) ( -0.00930,  0.03355) (  0.01179, -0.04250)
   0  28  105492.3     94.8   0.000308065   0.00096 (  0.00077,  0.03100) ( -0.00000, -0.00000) ( -0.00000, -0.00000)
   0  29  105772.2     94.5   0.000000000   0.00000 ( -0.00000, -0.00000) (  0.00000,  0.00000) (  0.00000,  0.00000)
   0  30  105772.2     94.5   0.000000000   0.00000 (  0.00000,  0.00000) ( -0.00000, -0.00000) (  0.00000, -0.00000)
   0  31  105946.5     94.4   0.000000000   0.00000 ( -0.00000, -0.00001) (  0.00000,  0.00000) ( -0.00000, -0.00000)
   0  32  106204.3     94.2   0.000000000   0.00000 ( -0.00000, -0.00000) (  0.00000, -0.00000) ( -0.00000, -0.00000)
   0  33  106204.3     94.2   0.000000000   0.00000 ( -0.00000, -0.00000) (  0.00000,  0.00000) ( -0.00000, -0.00000)
   0  34  106783.7     93.6   0.065787334   0.20282 (  0.00000,  0.00000) ( -0.15554, -0.23159) (  0.19712,  0.29350)
   0  35  106783.8     93.6   0.065789639   0.20283 ( -0.00000, -0.00000) ( -0.35188, -0.03431) ( -0.27766, -0.02707)
   0  36  108692.8     92.0   0.000000000   0.00000 (  0.00000, -0.00000) ( -0.00000,  0.00000) (  0.00000, -0.00000)
   0  37  108717.8     92.0   0.000000000   0.00000 ( -0.00000, -0.00000) (  0.00000,  0.00000) (  0.00000,  0.00000)
   0  38  109310.2     91.5   0.000000000   0.00000 (  0.00000,  0.00000) (  0.00000,  0.00000) ( -0.00000, -0.00000)
   0  39  109310.2     91.5   0.000000000   0.00000 ( -0.00000, -0.00000) (  0.00000,  0.00000) (  0.00000,  0.00000)
   0  40  109829.6     91.1   0.000000000   0.00000 ( -0.00000, -0.00003) ( -0.00000, -0.00000) ( -0.00000, -0.00000)

---------------------------------------------------------------------------------------------------------------------
                    SOC CORRECTED ABSORPTION SPECTRUM VIA TRANSITION VELOCITY DIPOLE MOMENTS*  
---------------------------------------------------------------------------------------------------------------------
   State    Energy  Wavelength   fosc         P2              PX                    PY                    PZ  
            (cm-1)    (nm)                  (au**2)          (au)                  (au)                  (au) 
---------------------------------------------------------------------------------------------------------------------
   0   1   16993.0    588.5   0.000000000   0.00000 ( -0.00000,  0.00000) (  0.00000, -0.00000) (  0.00000, -0.00000)
   0   2   17004.2    588.1   0.000000000   0.00000 (  0.00000, -0.00000) ( -0.00000,  0.00000) ( -0.00000,  0.00000)
   0   3   18116.0    552.0   0.003275508   0.00041 (  0.00000, -0.00000) ( -0.00006,  0.01247) (  0.00007, -0.01581)
   0   4   18116.0    552.0   0.003275543   0.00041 ( -0.00000,  0.00000) ( -0.00000,  0.01581) ( -0.00000,  0.01247)
   0   5   19792.2    505.3   0.000000000   0.00000 (  0.00000,  0.00000) ( -0.00000, -0.00000) (  0.00000,  0.00000)
   0   6   19866.1    503.4   0.000633616   0.00009 (  0.00927,  0.00013) (  0.00000,  0.00000) ( -0.00000, -0.00000)
   0   7   25311.1    395.1   0.056018381   0.00969 ( -0.00000, -0.00000) ( -0.00011, -0.07729) ( -0.00008, -0.06096)
   0   8   25311.1    395.1   0.056018346   0.00969 (  0.00000,  0.00000) ( -0.00265, -0.06090) (  0.00336,  0.07722)
   0   9   36662.2    272.8   0.000000000   0.00000 (  0.00000, -0.00000) ( -0.00000, -0.00000) (  0.00000,  0.00000)
   0  10   36662.2    272.8   0.000000000   0.00000 (  0.00000, -0.00000) (  0.00000, -0.00000) (  0.00000, -0.00000)
   0  11   37664.5    265.5   0.000000000   0.00000 (  0.00000, -0.00000) (  0.00000, -0.00000) ( -0.00000,  0.00000)
   0  12   37664.5    265.5   0.000000000   0.00000 ( -0.00000,  0.00000) ( -0.00000,  0.00000) ( -0.00000,  0.00000)
   0  13   39172.5    255.3   0.000000000   0.00000 (  0.00000, -0.00000) ( -0.00000,  0.00000) (  0.00000, -0.00000)
   0  14   39373.7    254.0   0.000000000   0.00000 ( -0.00000, -0.00000) ( -0.00000, -0.00000) ( -0.00000, -0.00000)
   0  15   44145.3    226.5   0.000000000   0.00000 (  0.00000, -0.00000) ( -0.00000,  0.00000) ( -0.00000,  0.00000)
   0  16   44145.3    226.5   0.000000000   0.00000 ( -0.00000,  0.00000) ( -0.00000,  0.00000) (  0.00000, -0.00000)
   0  17   47298.5    211.4   0.000000000   0.00000 ( -0.00000, -0.00000) (  0.00000,  0.00000) ( -0.00000, -0.00000)
   0  18   47319.9    211.3   0.000317417   0.00010 (  0.00000,  0.00000) ( -0.00233, -0.00583) (  0.00295,  0.00739)
   0  19   47319.9    211.3   0.000317415   0.00010 ( -0.00000, -0.00000) ( -0.00009, -0.00795) ( -0.00007, -0.00628)
   0  20   80694.6    123.9   0.709233821   0.39115 ( -0.16814,  0.60239) ( -0.00000,  0.00000) (  0.00000, -0.00000)
   0  21  102499.4     97.6   0.000000000   0.00000 (  0.00000, -0.00000) ( -0.00000,  0.00000) (  0.00000, -0.00000)
   0  22  102568.0     97.5   0.000000000   0.00000 ( -0.00000, -0.00000) (  0.00000,  0.00000) (  0.00000,  0.00000)
   0  23  103010.9     97.1   0.010386512   0.00731 ( -0.00000,  0.00000) (  0.05279, -0.00431) ( -0.06691,  0.00546)
   0  24  103011.1     97.1   0.010389714   0.00731 (  0.00000,  0.00000) (  0.00601,  0.06687) (  0.00475,  0.05276)
   0  25  104327.4     95.9   0.000000000   0.00000 (  0.00000, -0.00000) (  0.00000, -0.00000) ( -0.00000,  0.00000)
   0  26  105012.3     95.2   0.000514989   0.00037 (  0.00000, -0.00000) (  0.00267, -0.01485) (  0.00211, -0.01172)
   0  27  105012.6     95.2   0.000519033   0.00037 ( -0.00000, -0.00000) (  0.01152,  0.00320) ( -0.01460, -0.00405)
   0  28  105492.3     94.8   0.000018534   0.00001 ( -0.00365,  0.00009) ( -0.00000,  0.00000) ( -0.00000,  0.00000)
   0  29  105772.2     94.5   0.000000000   0.00000 (  0.00000, -0.00000) (  0.00000, -0.00000) (  0.00000, -0.00000)
   0  30  105772.2     94.5   0.000000000   0.00000 ( -0.00000, -0.00000) ( -0.00000,  0.00000) ( -0.00000, -0.00000)
   0  31  105946.5     94.4   0.000000000   0.00000 ( -0.00000,  0.00000) (  0.00000, -0.00000) ( -0.00000,  0.00000)
   0  32  106204.3     94.2   0.000000000   0.00000 ( -0.00000,  0.00000) ( -0.00000, -0.00000) ( -0.00000,  0.00000)
   0  33  106204.3     94.2   0.000000000   0.00000 ( -0.00000,  0.00000) (  0.00000, -0.00000) ( -0.00000,  0.00000)
   0  34  106783.7     93.6   0.038480680   0.02808 (  0.00000, -0.00000) ( -0.08618,  0.05788) (  0.10921, -0.07335)
   0  35  106783.8     93.6   0.038481518   0.02808 ( -0.00000,  0.00000) ( -0.01277,  0.13094) ( -0.01007,  0.10332)
   0  36  108692.8     92.0   0.000000000   0.00000 ( -0.00000, -0.00000) (  0.00000,  0.00000) ( -0.00000, -0.00000)
   0  37  108717.8     92.0   0.000000000   0.00000 (  0.00000, -0.00000) (  0.00000, -0.00000) (  0.00000, -0.00000)
   0  38  109310.2     91.5   0.000000000   0.00000 (  0.00000, -0.00000) (  0.00000, -0.00000) ( -0.00000,  0.00000)
   0  39  109310.2     91.5   0.000000000   0.00000 ( -0.00000,  0.00000) (  0.00000, -0.00000) (  0.00000, -0.00000)
   0  40  109829.6     91.1   0.000000000   0.00000 ( -0.00000,  0.00000) ( -0.00000,  0.00000) ( -0.00000,  0.00000)

-------------------------------------------------------------------------------------------------------
                                     SOC CORRECTED CD SPECTRUM*  
-------------------------------------------------------------------------------------------------------
   State    Energy  Wavelength      R               MX                    MY                    MZ  
            (cm-1)     (nm)      (1e40*sgs)         (au)                  (au)                  (au) 
-------------------------------------------------------------------------------------------------------
   0   1   16993.0    588.5     -0.00000 (  0.00000, -0.00000) ( -0.00000,  0.00000) (  0.00000, -0.00000)
   0   2   17004.2    588.1     -0.00000 ( -0.00000,  0.00000) (  0.00000, -0.00000) ( -0.00000,  0.00000)
   0   3   18116.0    552.0     -0.00000 (  0.00000, -0.00000) (  0.00000, -0.00000) (  0.00000, -0.00000)
   0   4   18116.0    552.0      0.00000 (  0.00000, -0.00000) ( -0.00000,  0.00000) (  0.00000, -0.00000)
   0   5   19792.2    505.3      0.00000 (  0.00000,  0.00000) ( -0.00000, -0.00000) ( -0.00000, -0.00000)
   0   6   19866.1    503.4     -0.00000 ( -0.00000, -0.00000) ( -0.00000, -0.00000) (  0.00000,  0.00000)
   0   7   25311.1    395.1     -0.00000 (  0.00000,  0.00000) ( -0.00000, -0.00000) (  0.00000,  0.00000)
   0   8   25311.1    395.1      0.00000 ( -0.00000, -0.00000) (  0.00000,  0.00000) (  0.00000,  0.00000)
   0   9   36662.2    272.8      0.00000 (  0.00000, -0.00000) (  0.00000,  0.00000) (  0.00000, -0.00000)
   0  10   36662.2    272.8     -0.00000 ( -0.00000,  0.00000) (  0.00000, -0.00000) (  0.00000, -0.00000)
   0  11   37664.5    265.5     -0.00000 (  0.00000, -0.00000) (  0.03107, -0.00000) (  0.06806, -0.00000)
   0  12   37664.5    265.5      0.00000 ( -0.00000,  0.00000) (  0.06806, -0.00000) ( -0.03107,  0.00000)
   0  13   39172.5    255.3     -0.00000 ( -0.00000,  0.03574) ( -0.00000,  0.00000) (  0.00000, -0.00000)
   0  14   39373.7    254.0      0.00000 ( -0.00000,  0.00000) ( -0.00000,  0.00000) ( -0.00000,  0.00000)
   0  15   44145.3    226.5      0.00000 ( -0.00000,  0.00000) (  0.33690, -0.00000) ( -0.15620,  0.00000)
   0  16   44145.3    226.5     -0.00000 ( -0.00000,  0.00000) ( -0.15620,  0.00000) ( -0.33690,  0.00000)
   0  17   47298.5    211.4     -0.00000 (  0.00000,  0.00000) (  0.00000,  0.00000) (  0.00000,  0.00000)
   0  18   47319.9    211.3     -0.00000 ( -0.00000, -0.00000) ( -0.00000, -0.00000) ( -0.00000, -0.00000)
   0  19   47319.9    211.3      0.00000 (  0.00000,  0.00000) (  0.00000,  0.00000) ( -0.00000, -0.00000)
   0  20   80694.6    123.9      0.00000 ( -0.00000,  0.00000) ( -0.00000,  0.00000) ( -0.00000,  0.00000)
   0  21  102499.4     97.6      0.00000 (  0.00000, -0.00000) (  0.00000, -0.00000) (  0.00000, -0.00000)
   0  22  102568.0     97.5      0.00000 ( -0.00000, -0.00000) (  0.00000,  0.00000) ( -0.00000, -0.00000)
   0  23  103010.9     97.1     -0.00000 (  0.00000, -0.00000) (  0.00000, -0.00000) (  0.00000, -0.00000)
   0  24  103011.1     97.1      0.00000 (  0.00000,  0.00000) ( -0.00000, -0.00000) (  0.00000,  0.00000)
   0  25  104327.4     95.9      0.00000 (  0.00000, -0.00000) ( -0.00000,  0.00000) ( -0.00000,  0.00000)
   0  26  105012.3     95.2     -0.00000 (  0.00000, -0.00000) ( -0.00000,  0.00000) (  0.00000, -0.00000)
   0  27  105012.6     95.2      0.00000 (  0.00000,  0.00000) (  0.00000,  0.00000) (  0.00000,  0.00000)
   0  28  105492.3     94.8      0.00000 (  0.00000, -0.00000) (  0.00000, -0.00000) ( -0.00000,  0.00000)
   0  29  105772.2     94.5      0.00000 (  0.00000, -0.00000) (  0.00000, -0.00000) (  0.00000, -0.00000)
   0  30  105772.2     94.5     -0.00000 ( -0.00000, -0.00000) ( -0.00000, -0.00000) ( -0.00000,  0.00000)
   0  31  105946.5     94.4      0.00000 ( -0.00000,  0.00000) ( -0.00000,  0.00000) ( -0.00000,  0.00000)
   0  32  106204.3     94.2     -0.00000 ( -0.00000, -0.00000) (  0.06553,  0.00000) ( -0.06903, -0.00000)
   0  33  106204.3     94.2      0.00000 (  0.00000, -0.00000) (  0.06903, -0.00000) (  0.06553, -0.00000)
   0  34  106783.7     93.6     -0.00000 (  0.00000, -0.00000) (  0.00000, -0.00000) (  0.00000, -0.00000)
   0  35  106783.8     93.6      0.00000 (  0.00000, -0.00000) ( -0.00000,  0.00000) (  0.00000, -0.00000)
   0  36  108692.8     92.0     -0.00000 (  0.00000,  0.00755) ( -0.00000,  0.00000) (  0.00000, -0.00000)
   0  37  108717.8     92.0     -0.00000 ( -0.00000, -0.00000) ( -0.00000,  0.00000) ( -0.00000, -0.00000)
   0  38  109310.2     91.5     -0.00000 ( -0.00000,  0.00000) ( -0.09311,  0.00000) ( -0.09823,  0.00000)
   0  39  109310.2     91.5      0.00000 ( -0.00000,  0.00000) (  0.09823, -0.00000) ( -0.09311,  0.00000)
   0  40  109829.6     91.1      0.00000 ( -0.00000,  0.00000) ( -0.00000,  0.00000) ( -0.00000,  0.00000)

-------------------------------------------------------------------------------------------------------
                    SOC CORRECTED CD SPECTRUM VIA TRANSITION VELOCITY DIPOLE MOMENTS                   
-------------------------------------------------------------------------------------------------------
   State    Energy  Wavelengt      R               MX                    MY                    MZ  
            (cm-1)    (nm)     (1e40*sgs)         (au)                  (au)                  (au) 
-------------------------------------------------------------------------------------------------------
   0   1   16993.0    588.5      0.00000 (  0.00000, -0.00000) ( -0.00000,  0.00000) (  0.00000, -0.00000)
   0   2   17004.2    588.1      0.00000 ( -0.00000,  0.00000) (  0.00000, -0.00000) ( -0.00000,  0.00000)
   0   3   18116.0    552.0      0.00000 (  0.00000, -0.00000) (  0.00000, -0.00000) (  0.00000, -0.00000)
   0   4   18116.0    552.0     -0.00000 (  0.00000, -0.00000) ( -0.00000,  0.00000) (  0.00000, -0.00000)
   0   5   19792.2    505.3     -0.00000 (  0.00000,  0.00000) ( -0.00000, -0.00000) ( -0.00000, -0.00000)
   0   6   19866.1    503.4      0.00000 ( -0.00000, -0.00000) ( -0.00000, -0.00000) (  0.00000,  0.00000)
   0   7   25311.1    395.1      0.00000 (  0.00000,  0.00000) ( -0.00000, -0.00000) (  0.00000,  0.00000)
   0   8   25311.1    395.1     -0.00000 ( -0.00000, -0.00000) (  0.00000,  0.00000) (  0.00000,  0.00000)
   0   9   36662.2    272.8      0.00000 (  0.00000, -0.00000) (  0.00000,  0.00000) (  0.00000, -0.00000)
   0  10   36662.2    272.8     -0.00000 ( -0.00000,  0.00000) (  0.00000, -0.00000) (  0.00000, -0.00000)
   0  11   37664.5    265.5      0.00000 (  0.00000, -0.00000) (  0.03107, -0.00000) (  0.06806, -0.00000)
   0  12   37664.5    265.5     -0.00000 ( -0.00000,  0.00000) (  0.06806, -0.00000) ( -0.03107,  0.00000)
   0  13   39172.5    255.3      0.00000 ( -0.00000,  0.03574) ( -0.00000,  0.00000) (  0.00000, -0.00000)
   0  14   39373.7    254.0      0.00000 ( -0.00000,  0.00000) ( -0.00000,  0.00000) ( -0.00000,  0.00000)
   0  15   44145.3    226.5     -0.00000 ( -0.00000,  0.00000) (  0.33690, -0.00000) ( -0.15620,  0.00000)
   0  16   44145.3    226.5      0.00000 ( -0.00000,  0.00000) ( -0.15620,  0.00000) ( -0.33690,  0.00000)
   0  17   47298.5    211.4      0.00000 (  0.00000,  0.00000) (  0.00000,  0.00000) (  0.00000,  0.00000)
   0  18   47319.9    211.3      0.00000 ( -0.00000, -0.00000) ( -0.00000, -0.00000) ( -0.00000, -0.00000)
   0  19   47319.9    211.3     -0.00000 (  0.00000,  0.00000) (  0.00000,  0.00000) ( -0.00000, -0.00000)
   0  20   80694.6    123.9     -0.00000 ( -0.00000,  0.00000) ( -0.00000,  0.00000) ( -0.00000,  0.00000)
   0  21  102499.4     97.6     -0.00000 (  0.00000, -0.00000) (  0.00000, -0.00000) (  0.00000, -0.00000)
   0  22  102568.0     97.5     -0.00000 ( -0.00000, -0.00000) (  0.00000,  0.00000) ( -0.00000, -0.00000)
   0  23  103010.9     97.1      0.00000 (  0.00000, -0.00000) (  0.00000, -0.00000) (  0.00000, -0.00000)
   0  24  103011.1     97.1     -0.00000 (  0.00000,  0.00000) ( -0.00000, -0.00000) (  0.00000,  0.00000)
   0  25  104327.4     95.9     -0.00000 (  0.00000, -0.00000) ( -0.00000,  0.00000) ( -0.00000,  0.00000)
   0  26  105012.3     95.2      0.00000 (  0.00000, -0.00000) ( -0.00000,  0.00000) (  0.00000, -0.00000)
   0  27  105012.6     95.2     -0.00000 (  0.00000,  0.00000) (  0.00000,  0.00000) (  0.00000,  0.00000)
   0  28  105492.3     94.8      0.00000 (  0.00000, -0.00000) (  0.00000, -0.00000) ( -0.00000,  0.00000)
   0  29  105772.2     94.5     -0.00000 (  0.00000, -0.00000) (  0.00000, -0.00000) (  0.00000, -0.00000)
   0  30  105772.2     94.5      0.00000 ( -0.00000, -0.00000) ( -0.00000, -0.00000) ( -0.00000,  0.00000)
   0  31  105946.5     94.4     -0.00000 ( -0.00000,  0.00000) ( -0.00000,  0.00000) ( -0.00000,  0.00000)
   0  32  106204.3     94.2      0.00000 ( -0.00000, -0.00000) (  0.06553,  0.00000) ( -0.06903, -0.00000)
   0  33  106204.3     94.2     -0.00000 (  0.00000, -0.00000) (  0.06903, -0.00000) (  0.06553, -0.00000)
   0  34  106783.7     93.6      0.00000 (  0.00000, -0.00000) (  0.00000, -0.00000) (  0.00000, -0.00000)
   0  35  106783.8     93.6     -0.00000 (  0.00000, -0.00000) ( -0.00000,  0.00000) (  0.00000, -0.00000)
   0  36  108692.8     92.0      0.00000 (  0.00000,  0.00755) ( -0.00000,  0.00000) (  0.00000, -0.00000)
   0  37  108717.8     92.0      0.00000 ( -0.00000, -0.00000) ( -0.00000,  0.00000) ( -0.00000, -0.00000)
   0  38  109310.2     91.5     -0.00000 ( -0.00000,  0.00000) ( -0.09311,  0.00000) ( -0.09823,  0.00000)
   0  39  109310.2     91.5      0.00000 ( -0.00000,  0.00000) (  0.09823, -0.00000) ( -0.09311,  0.00000)
   0  40  109829.6     91.1     -0.00000 ( -0.00000,  0.00000) ( -0.00000,  0.00000) ( -0.00000,  0.00000)

*The complex numbers are printed as (real, imaginary)

The electronic components of the SOC ground state dipole moment in a.u. are:
           X                     Y                     Z
(  0.00000, -0.00000) (  0.00000,  0.00000) ( -0.00000, -0.00000)

Total run time:       59.690 sec

           *** ORCA-CIS/TD-DFT FINISHED WITHOUT ERROR ***

Maximum memory used throughout the entire CIS-calculation: 151.2 MB

---------------------------
SOC CIS/TD-DFT TOTAL ENERGY
---------------------------

    E(SCF)        =  -5145.387220135 Eh
    E(SOC CIS)    =      0.076395116 Eh (SOC Root  1)
    ----------------------------- ---------
    E(tot)        =  -5145.310825020 Eh


-------------------------   --------------------
FINAL SINGLE POINT ENERGY     -5145.310825019560
-------------------------   --------------------


                            ***************************************
                            *     ORCA property calculations      *
                            ***************************************

                                    ---------------------
                                    Active property flags
                                    ---------------------
   (+) Dipole Moment


------------------------------------------------------------------------------
                       ORCA ELECTRIC PROPERTIES CALCULATION
------------------------------------------------------------------------------

Dipole Moment Calculation                       ... on
Quadrupole Moment Calculation                   ... off
Polarizability Calculation                      ... off
GBWName                                         ... orca.gbw
Electron density                                ... orca.scfp
The origin for moment calculation is the CENTER OF MASS  = ( 7.558905,  7.558905  7.558905)

-------------
DIPOLE MOMENT
-------------
                                X             Y             Z
Electronic contribution:      0.00000       0.00000      -0.00000
Nuclear contribution   :     -0.00000      -0.00000      -0.00000
                        -----------------------------------------
Total Dipole Moment    :      0.00000       0.00000      -0.00000
                        -----------------------------------------
Magnitude (a.u.)       :      0.00000
Magnitude (Debye)      :      0.00000



--------------------
Rotational spectrum 
--------------------
 
Rotational constants in cm-1:     0.000000     0.083949     0.083949 
Rotational constants in MHz :     0.000000  2516.713920  2516.713920 

 Dipole components along the rotational axes: 
x,y,z [a.u.] :     0.000000    -0.000000     0.000000 
x,y,z [Debye]:     0.000000    -0.000000     0.000000 

 

Timings for individual modules:

Sum of individual times         ...       85.034 sec (=   1.417 min)
GTO integral calculation        ...        0.229 sec (=   0.004 min)   0.3 %
SCF iterations                  ...       25.104 sec (=   0.418 min)  29.5 %
CIS module                      ...       59.701 sec (=   0.995 min)  70.2 %
                             ****ORCA TERMINATED NORMALLY****
TOTAL RUN TIME: 0 days 0 hours 1 minutes 25 seconds 206 msec
