 DBCSR| CPU Multiplication driver                                           XSMM (U)
 DBCSR| Multrec recursion limit                                              512 (U)
 DBCSR| Multiplication stack size                                           1000 (D)
 DBCSR| Maximum elements for images                                    UNLIMITED (U)
 DBCSR| Multiplicative factor virtual images                                   1 (U)
 DBCSR| Use multiplication densification                                       T (D)
 DBCSR| Multiplication size stacks                                             3 (U)
 DBCSR| Use memory pool for CPU allocation                                     F (U)
 DBCSR| Number of 3D layers                                               SINGLE (U)
 DBCSR| Use MPI memory allocation                                              F (U)
 DBCSR| Use RMA algorithm                                                      F (U)
 DBCSR| Use Communication thread                                               T (U)
 DBCSR| Communication thread load                                             83 (D)
 DBCSR| MPI: My process id                                                     0
 DBCSR| MPI: Number of processes                                              64
 DBCSR| OMP: Current number of threads                                         2
 DBCSR| OMP: Max number of threads                                             2
 DBCSR| Split modifier for TAS multiplication algorithm                  1.0E+00 (U)


  **** **** ******  **  PROGRAM STARTED AT               2023-12-06 09:13:44.863
 ***** ** ***  *** **   PROGRAM STARTED ON                           nesh-clk489
 **    ****   ******    PROGRAM STARTED BY                              suphc355
 ***** **    ** ** **   PROGRAM PROCESS ID                               2994460
  **** **  *******  **  PROGRAM STARTED IN /gxfs_work/cau/suphc355/homologes/X2/
                                           AE/F

 CP2K| version string:                 CP2K version 2023.2 (Development Version)
 CP2K| source code revision number:                                  git:845a3ae
 CP2K| cp2kflags: omp libint fftw3 libxc parallel mpi_f08 scalapack cosma xsmm s
 CP2K|            pglib mkl
 CP2K| is freely available from                            https://www.cp2k.org/
 CP2K| Program compiled at                           Fr 1. Dez 12:58:35 CET 2023
 CP2K| Program compiled on                                           nesh-login3
 CP2K| Program compiled for                                                local
 CP2K| Data directory path            /gxfs_home/cau/suphc355/software/cp2k/data
 CP2K| Input file name                                                    AE.inp
 
 GLOBAL| Force Environment number                                              1
 GLOBAL| Basis set file name                                   ../../../basis_ae
 GLOBAL| Potential file name                                           POTENTIAL
 GLOBAL| MM Potential file name                                     MM_POTENTIAL
 GLOBAL| Coordinate file name                                            opt.xyz
 GLOBAL| Method name                                                        CP2K
 GLOBAL| Project name                                                      F2_AE
 GLOBAL| Run type                                                         ENERGY
 GLOBAL| FFT library                                                       FFTW3
 GLOBAL| Diagonalization library                                       ScaLAPACK
 GLOBAL| DGEMM library                                                      BLAS
 GLOBAL| Orthonormality check for eigenvectors                          DISABLED
 GLOBAL| Matrix multiplication library                                     COSMA
 GLOBAL| All-to-all communication in single precision                          F
 GLOBAL| FFTs using library dependent lengths                                  F
 GLOBAL| Grid backend                                                       AUTO
 GLOBAL| Global print level                                               MEDIUM
 GLOBAL| MPI I/O enabled                                                       T
 GLOBAL| Total number of message passing processes                            64
 GLOBAL| Number of threads for this process                                    2
 GLOBAL| This output is from process                                           0
 GLOBAL| Stack size for threads created by OpenMP (OMP_STACKSIZE)        default
 GLOBAL| CPU model name                Intel(R) Xeon(R) Gold 6226R CPU @ 2.90GHz
 GLOBAL| CPUID                                                              1003

 MEMORY| system memory details [Kb]
 MEMORY|                        rank 0           min           max       average
 MEMORY| MemTotal            196683224     196683224     196683224     196683224
 MEMORY| MemFree             175999768     175999768     176082772     176041435
 MEMORY| Buffers                932420        917288        932420        924854
 MEMORY| Cached                1298128       1287872       1298128       1293000
 MEMORY| Slab                   705920        645884        705920        675902
 MEMORY| SReclaimable           232508        207600        232508        220054
 MEMORY| MemLikelyFree       178462824     178462824     178495532     178479343


 *** Fundamental physical constants (SI units) ***

 *** Literature: B. J. Mohr and B. N. Taylor,
 ***             CODATA recommended values of the fundamental physical
 ***             constants: 2006, Web Version 5.1
 ***             http://physics.nist.gov/constants

 Speed of light in vacuum [m/s]                             2.99792458000000E+08
 Magnetic constant or permeability of vacuum [N/A**2]       1.25663706143592E-06
 Electric constant or permittivity of vacuum [F/m]          8.85418781762039E-12
 Planck constant (h) [J*s]                                  6.62606896000000E-34
 Planck constant (h-bar) [J*s]                              1.05457162825177E-34
 Elementary charge [C]                                      1.60217648700000E-19
 Electron mass [kg]                                         9.10938215000000E-31
 Electron g factor [ ]                                     -2.00231930436220E+00
 Proton mass [kg]                                           1.67262163700000E-27
 Fine-structure constant                                    7.29735253760000E-03
 Rydberg constant [1/m]                                     1.09737315685270E+07
 Avogadro constant [1/mol]                                  6.02214179000000E+23
 Boltzmann constant [J/K]                                   1.38065040000000E-23
 Atomic mass unit [kg]                                      1.66053878200000E-27
 Bohr radius [m]                                            5.29177208590000E-11

 *** Conversion factors ***

 [u] -> [a.u.]                                              1.82288848426455E+03
 [Angstrom] -> [Bohr] = [a.u.]                              1.88972613288564E+00
 [a.u.] = [Bohr] -> [Angstrom]                              5.29177208590000E-01
 [a.u.] -> [s]                                              2.41888432650478E-17
 [a.u.] -> [fs]                                             2.41888432650478E-02
 [a.u.] -> [J]                                              4.35974393937059E-18
 [a.u.] -> [N]                                              8.23872205491840E-08
 [a.u.] -> [K]                                              3.15774647902944E+05
 [a.u.] -> [kJ/mol]                                         2.62549961709828E+03
 [a.u.] -> [kcal/mol]                                       6.27509468713739E+02
 [a.u.] -> [Pa]                                             2.94210107994716E+13
 [a.u.] -> [bar]                                            2.94210107994716E+08
 [a.u.] -> [atm]                                            2.90362800883016E+08
 [a.u.] -> [eV]                                             2.72113838565563E+01
 [a.u.] -> [Hz]                                             6.57968392072181E+15
 [a.u.] -> [1/cm] (wave numbers)                            2.19474631370540E+05
 [a.u./Bohr**2] -> [1/cm]                                   5.14048714338585E+03
 

 CELL_TOP| Volume [angstrom^3]:                                       512.000000
 CELL_TOP| Vector a [angstrom     8.000     0.000     0.000   |a| =     8.000000
 CELL_TOP| Vector b [angstrom     0.000     8.000     0.000   |b| =     8.000000
 CELL_TOP| Vector c [angstrom     0.000     0.000     8.000   |c| =     8.000000
 CELL_TOP| Angle (b,c), alpha [degree]:                                90.000000
 CELL_TOP| Angle (a,c), beta  [degree]:                                90.000000
 CELL_TOP| Angle (a,b), gamma [degree]:                                90.000000
 CELL_TOP| Numerically orthorhombic:                                         YES
 CELL_TOP| Periodicity                                                      NONE
 
 GENERATE|  Preliminary Number of Bonds generated:                             0
 GENERATE|  Achieved consistency in connectivity generation.

 CELL| Volume [angstrom^3]:                                           512.000000
 CELL| Vector a [angstrom]:       8.000     0.000     0.000   |a| =     8.000000
 CELL| Vector b [angstrom]:       0.000     8.000     0.000   |b| =     8.000000
 CELL| Vector c [angstrom]:       0.000     0.000     8.000   |c| =     8.000000
 CELL| Angle (b,c), alpha [degree]:                                    90.000000
 CELL| Angle (a,c), beta  [degree]:                                    90.000000
 CELL| Angle (a,b), gamma [degree]:                                    90.000000
 CELL| Numerically orthorhombic:                                             YES
 CELL| Periodicity                                                          NONE

 CELL_REF| Volume [angstrom^3]:                                       512.000000
 CELL_REF| Vector a [angstrom     8.000     0.000     0.000   |a| =     8.000000
 CELL_REF| Vector b [angstrom     0.000     8.000     0.000   |b| =     8.000000
 CELL_REF| Vector c [angstrom     0.000     0.000     8.000   |c| =     8.000000
 CELL_REF| Angle (b,c), alpha [degree]:                                90.000000
 CELL_REF| Angle (a,c), beta  [degree]:                                90.000000
 CELL_REF| Angle (a,b), gamma [degree]:                                90.000000
 CELL_REF| Numerically orthorhombic:                                         YES
 CELL_REF| Periodicity                                                      NONE

 *******************************************************************************
 *******************************************************************************
 **                                                                           **
 **     #####                         ##              ##                      **
 **    ##   ##            ##          ##              ##                      **
 **   ##     ##                       ##            ######                    **
 **   ##     ##  ##   ##  ##   #####  ##  ##   ####   ##    #####    #####    **
 **   ##     ##  ##   ##  ##  ##      ## ##   ##      ##   ##   ##  ##   ##   **
 **   ##  ## ##  ##   ##  ##  ##      ####     ###    ##   ######   ######    **
 **    ##  ###   ##   ##  ##  ##      ## ##      ##   ##   ##       ##        **
 **     #######   #####   ##   #####  ##  ##  ####    ##    #####   ##        **
 **           ##                                                    ##        **
 **                                                                           **
 **                                                ... make the atoms dance   **
 **                                                                           **
 **            Copyright (C) by CP2K developers group (2000-2023)             **
 **                      J. Chem. Phys. 152, 194103 (2020)                    **
 **                                                                           **
 *******************************************************************************

 DFT| Spin restricted Kohn-Sham (RKS) calculation                            RKS
 DFT| Multiplicity                                                             1
 DFT| Number of spin states                                                    1
 DFT| Charge                                                                   0
 DFT| Self-interaction correction (SIC)                                       NO
 DFT| Cutoffs: density                                              1.000000E-10
 DFT|          gradient                                             1.000000E-10
 DFT|          tau                                                  1.000000E-10
 DFT|          cutoff_smoothing_range                               0.000000E+00
 DFT| XC density smoothing                                                  NONE
 DFT| XC derivatives                                                          PW

 FUNCTIONAL| PBE:
 FUNCTIONAL| J.P.Perdew, K.Burke, M.Ernzerhof, Phys. Rev. Letter, vol. 77, n 18,
 FUNCTIONAL|  pp. 3865-3868, (1996) {spin unpolarized}                          


 QS| Method:                                                                GAPW
 QS| Density plane wave grid type                        NON-SPHERICAL FULLSPACE
 QS| Number of grid levels:                                                    5
 QS| Density cutoff [a.u.]:                                                600.0
 QS| Multi grid cutoff [a.u.]: 1) grid level                               600.0
 QS|                           2) grid level                               200.0
 QS|                           3) grid level                                66.7
 QS|                           4) grid level                                22.2
 QS|                           5) grid level                                 7.4
 QS| Grid level progression factor:                                          3.0
 QS| Relative density cutoff [a.u.]:                                        40.0
 QS| Interaction thresholds: eps_pgf_orb:                                1.0E-30
 QS|                         eps_filter_matrix:                          0.0E+00
 QS|                         eps_core_charge:                            1.0E-17
 QS|                         eps_rho_gspace:                             1.0E-15
 QS|                         eps_rho_rspace:                             1.0E-15
 QS|                         eps_gvg_rspace:                             3.2E-08
 QS|                         eps_ppl:                                    1.0E-02
 QS|                         eps_ppnl:                                   3.2E-10
 QS| GAPW|      One center basis from orbital basis primitives
 QS| GAPW|                   eps_fit:                                    1.0E-04
 QS| GAPW|                   eps_iso:                                    1.0E-12
 QS| GAPW|                   eps_svd:                                    1.0E-08
 QS| GAPW|                   eps_cpc:                                    1.0E-15
 QS| GAPW|   atom-r-grid: quadrature:                                     GC_LOG
 QS| GAPW|      atom-s-grid:  max l :                                          6
 QS| GAPW|      max_l_rho0 :                                                   2


 ATOMIC KIND INFORMATION

  1. Atomic kind: F                                     Number of atoms:       2

     Orbital Basis Set                                                 def2-TZVP

       Number of orbital shell sets:                                          11
       Number of orbital shells:                                              11
       Number of primitive Cartesian functions:                               20
       Number of Cartesian basis functions:                                   36
       Number of spherical basis functions:                                   31
       Norm type:                                                              2

       Normalised Cartesian orbitals:

                        Set   Shell   Orbital            Exponent    Coefficient

                          1       1    1s            35479.100441       1.035166
                                                      5318.472898       1.933117
                                                      1210.481098       3.308168
                                                       342.855181       5.190436
                                                       112.019432       7.145372
                                                        40.714740       7.785360

                          2       1    1s               16.039678       3.615646
                                                         6.503819       1.164999

                          3       1    1s                1.544048       0.987201

                          4       1    1s                0.612235       0.493286

                          5       1    1s                0.240280       0.244595

                          6       1    1px              80.233900       4.217408
                                                        18.594011       4.717426
                                                         5.686790       4.084910
                                                         1.951101       2.299897
                          6       1    1py              80.233900       4.217408
                                                        18.594011       4.717426
                                                         5.686790       4.084910
                                                         1.951101       2.299897
                          6       1    1pz              80.233900       4.217408
                                                        18.594011       4.717426
                                                         5.686790       4.084910
                                                         1.951101       2.299897

                          7       1    1px               0.669702       0.863559
                          7       1    1py               0.669702       0.863559
                          7       1    1pz               0.669702       0.863559

                          8       1    1px               0.216513       0.210521
                          8       1    1py               0.216513       0.210521
                          8       1    1pz               0.216513       0.210521

                          9       1    1dx2              3.107000      11.967589
                          9       1    1dxy              3.107000      20.728471
                          9       1    1dxz              3.107000      20.728471
                          9       1    1dy2              3.107000      11.967589
                          9       1    1dyz              3.107000      20.728471
                          9       1    1dz2              3.107000      11.967589

                         10       1    1dx2              0.855000       1.251267
                         10       1    1dxy              0.855000       2.167259
                         10       1    1dxz              0.855000       2.167259
                         10       1    1dy2              0.855000       1.251267
                         10       1    1dyz              0.855000       2.167259
                         10       1    1dz2              0.855000       1.251267

                         11       1    1fx3              1.917000       6.365818
                         11       1    1fx2y             1.917000      14.234401
                         11       1    1fx2z             1.917000      14.234401
                         11       1    1fxy2             1.917000      14.234401
                         11       1    1fxyz             1.917000      24.654706
                         11       1    1fxz2             1.917000      14.234401
                         11       1    1fy3              1.917000       6.365818
                         11       1    1fy2z             1.917000      14.234401
                         11       1    1fyz2             1.917000      14.234401
                         11       1    1fz3              1.917000       6.365818

       Atomic covalent radius [Angstrom]:                                  0.720

       Atomic van der Waals radius [Angstrom]:                             1.470

     The atoms of this atomic kind are PAW atoms (GAPW):
       Hard Gaussian function radius:                                      1.512
       Rho0 radius:                                                        1.512
       Maximum GTO radius used for PAW projector construction:            24.566

     GAPW Soft Basis Set                                          def2-TZVP_soft

       Number of orbital shell sets:                                          11
       Number of orbital shells:                                              11
       Number of primitive Cartesian functions:                                9
       Number of Cartesian basis functions:                                   36
       Number of spherical basis functions:                                   31
       Norm type:                                                              2

       Normalised Cartesian orbitals:

                        Set   Shell   Orbital            Exponent    Coefficient

                          1       1    1s         

                          2       1    1s         

                          3       1    1s                1.544048       0.987201

                          4       1    1s                0.612235       0.493286

                          5       1    1s                0.240280       0.244595

                          6       1    1px               1.951101       2.299897
                          6       1    1py               1.951101       2.299897
                          6       1    1pz               1.951101       2.299897

                          7       1    1px               0.669702       0.863559
                          7       1    1py               0.669702       0.863559
                          7       1    1pz               0.669702       0.863559

                          8       1    1px               0.216513       0.210521
                          8       1    1py               0.216513       0.210521
                          8       1    1pz               0.216513       0.210521

                          9       1    1dx2              3.107000      11.967589
                          9       1    1dxy              3.107000      20.728471
                          9       1    1dxz              3.107000      20.728471
                          9       1    1dy2              3.107000      11.967589
                          9       1    1dyz              3.107000      20.728471
                          9       1    1dz2              3.107000      11.967589

                         10       1    1dx2              0.855000       1.251267
                         10       1    1dxy              0.855000       2.167259
                         10       1    1dxz              0.855000       2.167259
                         10       1    1dy2              0.855000       1.251267
                         10       1    1dyz              0.855000       2.167259
                         10       1    1dz2              0.855000       1.251267

                         11       1    1fx3              1.917000       6.365818
                         11       1    1fx2y             1.917000      14.234401
                         11       1    1fx2z             1.917000      14.234401
                         11       1    1fxy2             1.917000      14.234401
                         11       1    1fxyz             1.917000      24.654706
                         11       1    1fxz2             1.917000      14.234401
                         11       1    1fy3              1.917000       6.365818
                         11       1    1fy2z             1.917000      14.234401
                         11       1    1fyz2             1.917000      14.234401
                         11       1    1fz3              1.917000       6.365818

     AE Potential information for                                            ALL

       Description:                                       All-electron potential
                                          Krack, Parrinello, PCCP 2, 2105 (2000)

       Gaussian exponent of the core charge distribution:              10.470541
       Electronic configuration (s p d ...):                           4   5   0


 MOLECULE KIND INFORMATION


 All atoms are their own molecule, skipping detailed information


 TOTAL NUMBERS AND MAXIMUM NUMBERS

  Total number of            - Atomic kinds:                                   1
                             - Atoms:                                          2
                             - Shell sets:                                    22
                             - Shells:                                        22
                             - Primitive Cartesian functions:                 40
                             - Cartesian basis functions:                     72
                             - Spherical basis functions:                     62

  Maximum angular momentum of the orbital basis functions:                     3


 MODULE QUICKSTEP: ATOMIC COORDINATES IN ANGSTROM

   Atom Kind Element         X             Y             Z       Z(eff)     Mass
      1    1 F     9      3.293508      4.000000      4.000000   9.0000  18.9984
      2    1 F     9      4.706492      4.000000      4.000000   9.0000  18.9984



 SCF PARAMETERS         Density guess:                                    ATOMIC
                        --------------------------------------------------------
                        max_scf:                                              20
                        max_scf_history:                                       0
                        max_diis:                                              4
                        --------------------------------------------------------
                        eps_scf:                                        1.00E-07
                        eps_scf_history:                                0.00E+00
                        eps_diis:                                       1.00E-01
                        eps_eigval:                                     1.00E-05
                        --------------------------------------------------------
                        level_shift [a.u.]:                             0.000000
                        --------------------------------------------------------
                        Outer loop SCF in use 
                        No variables optimised in outer loop
                        eps_scf                                         1.00E-07
                        max_scf                                               50
                        No outer loop optimization
                        step_size                                       5.00E-01

 PW_GRID| Information for grid number                                          1
 PW_GRID| Grid distributed over                                    64 processors
 PW_GRID| Real space group dimensions                                    64    1
 PW_GRID| the grid is blocked:                                                NO
 PW_GRID| Cutoff [a.u.]                                                   1200.0
 PW_GRID| spherical cutoff:                                                   NO
 PW_GRID|   Bounds   1           -120     119                Points:         240
 PW_GRID|   Bounds   2           -120     119                Points:         240
 PW_GRID|   Bounds   3           -120     119                Points:         240
 PW_GRID| Volume element (a.u.^3)  0.2499E-03     Volume (a.u.^3)      3455.1473
 PW_GRID| Grid span                                                    FULLSPACE
 PW_GRID|   Distribution                         Average         Max         Min
 PW_GRID|   G-Vectors                           216000.0      216000      216000
 PW_GRID|   G-Rays                                 900.0         900         900
 PW_GRID|   Real Space Points                   216000.0      230400      172800

 PW_GRID| Information for grid number                                          2
 PW_GRID| Number of the reference grid                                         1
 PW_GRID| Grid distributed over                                    64 processors
 PW_GRID| Real space group dimensions                                    64    1
 PW_GRID| the grid is blocked:                                                NO
 PW_GRID| Cutoff [a.u.]                                                    600.0
 PW_GRID| spherical cutoff:                                                   NO
 PW_GRID|   Bounds   1            -90      89                Points:         180
 PW_GRID|   Bounds   2            -90      89                Points:         180
 PW_GRID|   Bounds   3            -90      89                Points:         180
 PW_GRID| Volume element (a.u.^3)  0.5924E-03     Volume (a.u.^3)      3455.1473
 PW_GRID| Grid span                                                    FULLSPACE
 PW_GRID|   Distribution                         Average         Max         Min
 PW_GRID|   G-Vectors                            91125.0       91440       90720
 PW_GRID|   G-Rays                                 506.2         508         504
 PW_GRID|   Real Space Points                    91125.0       97200       64800

 PW_GRID| Information for grid number                                          3
 PW_GRID| Number of the reference grid                                         2
 PW_GRID| Grid distributed over                                    64 processors
 PW_GRID| Real space group dimensions                                    64    1
 PW_GRID| the grid is blocked:                                                NO
 PW_GRID| Cutoff [a.u.]                                                    200.0
 PW_GRID| spherical cutoff:                                                   NO
 PW_GRID|   Bounds   1            -50      49                Points:         100
 PW_GRID|   Bounds   2            -50      49                Points:         100
 PW_GRID|   Bounds   3            -50      49                Points:         100
 PW_GRID| Volume element (a.u.^3)  0.3455E-02     Volume (a.u.^3)      3455.1473
 PW_GRID| Grid span                                                    FULLSPACE
 PW_GRID|   Distribution                         Average         Max         Min
 PW_GRID|   G-Vectors                            15625.0       15800       15500
 PW_GRID|   G-Rays                                 156.2         158         155
 PW_GRID|   Real Space Points                    15625.0       20000       10000

 PW_GRID| Information for grid number                                          4
 PW_GRID| Number of the reference grid                                         2
 PW_GRID| Grid distributed over                                    64 processors
 PW_GRID| Real space group dimensions                                     8    8
 PW_GRID| the grid is blocked:                                                NO
 PW_GRID| Cutoff [a.u.]                                                     66.7
 PW_GRID| spherical cutoff:                                                   NO
 PW_GRID|   Bounds   1            -30      29                Points:          60
 PW_GRID|   Bounds   2            -30      29                Points:          60
 PW_GRID|   Bounds   3            -30      29                Points:          60
 PW_GRID| Volume element (a.u.^3)  0.1600E-01     Volume (a.u.^3)      3455.1473
 PW_GRID| Grid span                                                    FULLSPACE
 PW_GRID|   Distribution                         Average         Max         Min
 PW_GRID|   G-Vectors                             3375.0        3540        3240
 PW_GRID|   G-Rays                                  56.2          59          54
 PW_GRID|   Real Space Points                     3375.0        3840        2940

 PW_GRID| Information for grid number                                          5
 PW_GRID| Number of the reference grid                                         2
 PW_GRID| Grid distributed over                                    64 processors
 PW_GRID| Real space group dimensions                                     8    8
 PW_GRID| the grid is blocked:                                                NO
 PW_GRID| Cutoff [a.u.]                                                     22.2
 PW_GRID| spherical cutoff:                                                   NO
 PW_GRID|   Bounds   1            -18      17                Points:          36
 PW_GRID|   Bounds   2            -18      17                Points:          36
 PW_GRID|   Bounds   3            -18      17                Points:          36
 PW_GRID| Volume element (a.u.^3)  0.7406E-01     Volume (a.u.^3)      3455.1473
 PW_GRID| Grid span                                                    FULLSPACE
 PW_GRID|   Distribution                         Average         Max         Min
 PW_GRID|   G-Vectors                              729.0         792         684
 PW_GRID|   G-Rays                                  20.2          22          19
 PW_GRID|   Real Space Points                      729.0         900         576

 PW_GRID| Information for grid number                                          6
 PW_GRID| Number of the reference grid                                         2
 PW_GRID| Grid distributed over                                    64 processors
 PW_GRID| Real space group dimensions                                     8    8
 PW_GRID| the grid is blocked:                                                NO
 PW_GRID| Cutoff [a.u.]                                                      7.4
 PW_GRID| spherical cutoff:                                                   NO
 PW_GRID|   Bounds   1            -10       9                Points:          20
 PW_GRID|   Bounds   2            -10       9                Points:          20
 PW_GRID|   Bounds   3            -10       9                Points:          20
 PW_GRID| Volume element (a.u.^3)  0.4319         Volume (a.u.^3)      3455.1473
 PW_GRID| Grid span                                                    FULLSPACE
 PW_GRID|   Distribution                         Average         Max         Min
 PW_GRID|   G-Vectors                              125.0         140         100
 PW_GRID|   G-Rays                                   6.2           7           5
 PW_GRID|   Real Space Points                      125.0         180          80

 POISSON| Solver                                          Martyna-Tuckerman (MT)
 POISSON| MT| Alpha                                                        7.000
 POISSON| MT| Relative cutoff                                                2.0
 POISSON| Periodicity                                                       NONE

 RS_GRID| Information for grid number                                          2
 RS_GRID|   Bounds   1            -90      89                Points:         180
 RS_GRID|   Bounds   2            -90      89                Points:         180
 RS_GRID|   Bounds   3            -90      89                Points:         180
 RS_GRID| Real space distribution over                                  8 groups
 RS_GRID| Real space distribution along direction                              2
 RS_GRID| Border size                                                         36
 RS_GRID| Real space distribution over                                  8 groups
 RS_GRID| Real space distribution along direction                              3
 RS_GRID| Border size                                                         36
 RS_GRID|   Distribution                         Average         Max         Min
 RS_GRID|   Planes                                  94.5          95          94
 RS_GRID|   Distribution                         Average         Max         Min
 RS_GRID|   Planes                                  94.5          95          94

 RS_GRID| Information for grid number                                          3
 RS_GRID|   Bounds   1            -50      49                Points:         100
 RS_GRID|   Bounds   2            -50      49                Points:         100
 RS_GRID|   Bounds   3            -50      49                Points:         100
 RS_GRID| Real space fully replicated
 RS_GRID| Group size                                                           1

 RS_GRID| Information for grid number                                          4
 RS_GRID|   Bounds   1            -30      29                Points:          60
 RS_GRID|   Bounds   2            -30      29                Points:          60
 RS_GRID|   Bounds   3            -30      29                Points:          60
 RS_GRID| Real space fully replicated
 RS_GRID| Group size                                                           1

 RS_GRID| Information for grid number                                          5
 RS_GRID|   Bounds   1            -18      17                Points:          36
 RS_GRID|   Bounds   2            -18      17                Points:          36
 RS_GRID|   Bounds   3            -18      17                Points:          36
 RS_GRID| Real space fully replicated
 RS_GRID| Group size                                                           1

 RS_GRID| Information for grid number                                          6
 RS_GRID|   Bounds   1            -10       9                Points:          20
 RS_GRID|   Bounds   2            -10       9                Points:          20
 RS_GRID|   Bounds   3            -10       9                Points:          20
 RS_GRID| Real space fully replicated
 RS_GRID| Group size                                                           1

 Number of electrons:                                                         18
 Number of occupied orbitals:                                                  9
 Number of molecular orbitals:                                                 9

 Number of orbital functions:                                                 62
 Number of independent orbital functions:                                     62

 Extrapolation method: initial_guess

 Atomic guess: The first density matrix is obtained in terms of atomic orbitals
               and electronic configurations assigned to each atomic kind

 Guess for atomic kind: F

 Electronic structure
    Total number of core electrons                                          0.00
    Total number of valence electrons                                       9.00
    Total number of electrons                                               9.00
    Multiplicity                                                   not specified
    S      2.00  2.00
    P      5.00
 

 *******************************************************************************
                  Iteration          Convergence                     Energy [au]
 *******************************************************************************
                          1         1.44247                     -98.919302612217
                          2         1.78049                     -98.865141798239
                          3        0.110199                     -99.088444290991
                          4        0.403602E-02                 -99.089572347862
                          5        0.204248E-03                 -99.089573426278
                          6        0.420105E-05                 -99.089573429432
                          7        0.481056E-05                 -99.089573429432
                          8        0.141011E-07                 -99.089573429434

 Energy components [Hartree]           Total Energy ::          -99.089573429434
                                        Band Energy ::          -52.587484361159
                                     Kinetic Energy ::           98.657649928640
                                   Potential Energy ::         -197.747223358073
                                      Virial (-V/T) ::            2.004378003136
                                        Core Energy ::         -139.033521023864
                                          XC Energy ::           -9.626910165406
                                     Coulomb Energy ::           49.570857759837

 Orbital energies  State     L     Occupation   Energy[a.u.]          Energy[eV]

                       1     0          2.000     -24.185291         -658.115231
                       2     0          2.000      -1.081754          -29.436032
 
                       1     1          5.000      -0.410679          -11.175140
 

 Total Electron Density at R=0:                                       430.543562
 Re-scaling the density matrix to get the right number of electrons
                  # Electrons              Trace(P)               Scaling factor
                           18                18.000                        1.000


 SCF WAVEFUNCTION OPTIMIZATION

  ----------------------------------- OT ---------------------------------------
  Minimizer      : DIIS                : direct inversion
                                         in the iterative subspace
                                         using   7 DIIS vectors
                                         safer DIIS on
  Preconditioner : FULL_ALL            : diagonalization, state selective
  Precond_solver : DEFAULT
  stepsize       :    0.15000000                  energy_gap     :    0.08000000
  eps_taylor     :   0.10000E-15                  max_taylor     :             4
  ----------------------------------- OT ---------------------------------------

  Step     Update method      Time    Convergence         Total energy    Change
  ------------------------------------------------------------------------------
     1 OT DIIS     0.15E+00   24.2     0.20810110      -196.4725935086 -1.96E+02
     2 OT DIIS     0.15E+00   16.7     0.07726321      -198.9527084898 -2.48E+00
     3 OT DIIS     0.15E+00   16.5     0.01679569      -199.3288267547 -3.76E-01
     4 OT DIIS     0.15E+00   16.2     0.01208691      -199.3448352018 -1.60E-02
     5 OT DIIS     0.15E+00   16.6     0.01032707      -199.3611820250 -1.63E-02
     6 OT DIIS     0.15E+00   17.4     0.00814167      -199.3829073025 -2.17E-02
     7 OT DIIS     0.15E+00   18.4     0.00598576      -199.4030182543 -2.01E-02
     8 OT DIIS     0.15E+00   18.1     0.00308718      -199.4186828058 -1.57E-02
     9 OT DIIS     0.15E+00   17.3     0.00268222      -199.4221097726 -3.43E-03
    10 OT DIIS     0.15E+00   17.4     0.00221865      -199.4217432180  3.67E-04
    11 OT DIIS     0.15E+00   16.8     0.00097359      -199.4227733340 -1.03E-03
    12 OT DIIS     0.15E+00   16.8     0.00050916      -199.4229090718 -1.36E-04
    13 OT DIIS     0.15E+00   18.1     0.00033146      -199.4229692671 -6.02E-05
    14 OT DIIS     0.15E+00   17.5     0.00016702      -199.4230004345 -3.12E-05
    15 OT DIIS     0.15E+00   17.3     0.00005397      -199.4230076276 -7.19E-06
    16 OT DIIS     0.15E+00   16.9     0.00001892      -199.4230080683 -4.41E-07
    17 OT DIIS     0.15E+00   15.1     0.00001251      -199.4230081079 -3.96E-08
    18 OT DIIS     0.15E+00   17.1     0.00000729      -199.4230081406 -3.27E-08
    19 OT DIIS     0.15E+00   15.9     0.00000326      -199.4230081642 -2.35E-08
    20 OT DIIS     0.15E+00   17.2     0.00000159      -199.4230081683 -4.17E-09

  Leaving inner SCF loop after reaching    20 steps.


  Electronic density on regular grids:        -12.5723356384        5.4276643616
  Core density on regular grids:               18.0000000000        0.0000000000
  Hard and soft densities (Lebedev):          -19.2758486708      -13.8481822830
  Total Rho_soft + Rho1_hard - Rho1_soft      -18.0000020262
  Total charge density (r-space):              -0.0000020262
  Total Rho_soft + Rho0_soft (g-space):        -0.0000025987

  Overlap energy of the core charge distribution:               0.00000000000000
  Self energy of the core charge distribution:               -209.12677936959636
  Core Hamiltonian energy:                                     -9.72627420496801
  Hartree energy:                                              26.54473233604696
  Exchange-correlation energy:                                 -7.51859325554371

  GAPW| Exc from hard and soft atomic rho1:                   -13.05524882761917
  GAPW| local Eh = 1 center integrals:                         13.45915515333571

  Total energy:                                              -199.42300816834461

  outer SCF iter =    1 RMS gradient =   0.16E-05 energy =       -199.4230081683

  ----------------------------------- OT ---------------------------------------
  Minimizer      : DIIS                : direct inversion
                                         in the iterative subspace
                                         using   7 DIIS vectors
                                         safer DIIS on
  Preconditioner : FULL_ALL            : diagonalization, state selective
  Precond_solver : DEFAULT
  stepsize       :    0.15000000                  energy_gap     :    0.08000000
  eps_taylor     :   0.10000E-15                  max_taylor     :             4
  ----------------------------------- OT ---------------------------------------

  Step     Update method      Time    Convergence         Total energy    Change
  ------------------------------------------------------------------------------
     1 OT DIIS     0.15E+00   42.5     0.00000248      -199.4230081688 -5.01E-10
     2 OT DIIS     0.15E+00   12.0     0.00000106      -199.4230081691 -2.92E-10
     3 OT DIIS     0.15E+00   11.9     0.00000132      -199.4230081691 -1.10E-11
     4 OT DIIS     0.15E+00   11.9     0.00000013      -199.4230081692 -3.02E-11
     5 OT DIIS     0.15E+00   11.9     0.00000001      -199.4230081692 -8.04E-12

  *** SCF run converged in     5 steps ***


  Electronic density on regular grids:        -12.5723348125        5.4276651875
  Core density on regular grids:               18.0000000000        0.0000000000
  Hard and soft densities (Lebedev):          -19.2758473610      -13.8481801472
  Total Rho_soft + Rho1_hard - Rho1_soft      -18.0000020262
  Total charge density (r-space):              -0.0000020262
  Total Rho_soft + Rho0_soft (g-space):        -0.0000025987

  Overlap energy of the core charge distribution:               0.00000000000000
  Self energy of the core charge distribution:               -209.12677936959636
  Core Hamiltonian energy:                                     -9.72627517817721
  Hartree energy:                                              26.54473285060173
  Exchange-correlation energy:                                 -7.51859205474330

  GAPW| Exc from hard and soft atomic rho1:                   -13.05524952563902
  GAPW| local Eh = 1 center integrals:                         13.45915510836726

  Total energy:                                              -199.42300816918694

  outer SCF iter =    2 RMS gradient =   0.14E-07 energy =       -199.4230081692
  outer SCF loop converged in   2 iterations or   25 steps


 !-----------------------------------------------------------------------------!
                     Mulliken Population Analysis

 #  Atom  Element  Kind  Atomic population                           Net charge
       1     F        1          9.000000                             -0.000000
       2     F        1          9.000000                              0.000000
 # Total charge                             18.000000                 -0.000000

 !-----------------------------------------------------------------------------!

 !-----------------------------------------------------------------------------!
                           Hirshfeld Charges

  #Atom  Element  Kind  Ref Charge     Population                    Net charge
      1       F      1       9.000          9.000                         0.000
      2       F      1       9.000          9.000                         0.000

  Total Charge                                                            0.000
 !-----------------------------------------------------------------------------!

 *******************************************************************************
 **                                                                           **
 **         ######## #######   #######   ######## #######  ########           **
 **            ##    ##     ## ##     ## ##       ##   ##     ##              **
 **            ##    ##     ## ##     ## ######   #######     ##              **
 **            ##    ##     ## ##     ## ##       ##          ##              **
 **            ##    #######   #######   ##       ##          ##              **
 **                                                                           **
 *******************************************************************************
 KERNEL|                                                                    FULL
 FUNCTIONAL| PBE:
 FUNCTIONAL| J.P.Perdew, K.Burke, M.Ernzerhof, Phys. Rev. Letter, vol. 77, n 18,
 FUNCTIONAL|  pp. 3865-3868, (1996) {spin unpolarized}                          
 KERNEL| Spin symmetry of excitations                                    Triplet
 TDDFPT| Number of states calculated                                          10
 TDDFPT| Number of Davidson iterations                                        20
 TDDFPT| Davidson iteration convergence                                0.100E-07
 TDDFPT| Max. number of Krylov space vectors                                  60
 TDDFPT| Molecular Orbitals:        Spin       AOs       Occ      Virt     Total
 TDDFPT|                               1        62         9        53        62

 *******************************************************************************
 **                                                                           **
 **                            ####### ####### #######                        **
 **                        #   ##      ##   ## ##                             **
 **                       ###  ######  ##   ## ##                             **
 **                        #       ##  ##   ## ##                             **
 **                            ######  ####### #######                        **
 **                 Based on the xas module from Augustin Bussy               **
 *******************************************************************************
 
 -------------------------------------------------------------------------------
 -                      TDDFPT TRIPLET ENERGIES                                 -
 -------------------------------------------------------------------------------
 
 -------------------------------------------------------------------------------
 -                            TDDFPT Initial Guess                             -
 -------------------------------------------------------------------------------
          State         Occupied      ->      Virtual          Excitation
          number         orbital              orbital          energy (eV)
 -------------------------------------------------------------------------------
             1                9                   10              3.63549
             2                8                   10              3.63549
             3                7                   10              7.01991
             4                6                   10              7.01991
             5                5                   10              9.61432
             6                9                   11             20.17859
             7                8                   11             20.17859
             8                9                   12             20.35392
             9                8                   12             20.35392
            10                9                   13             21.53934

      Number of active states:                                        477
 -------------------------------------------------------------------------------
 
 -------------------------------------------------------------------------------
 -                      TDDFPT WAVEFUNCTION OPTIMIZATION                       -
 -------------------------------------------------------------------------------

          Step            Time         Convergence           Conv. states
 -------------------------------------------------------------------------------

    State    Exc. energy (eV)      Convergence (eV)
        1       2.8340246            -8.0147E-01
        2       2.8340246            -8.0147E-01
        3       6.2627772            -7.5713E-01
        4       6.2627772            -7.5713E-01
        5       7.7808764            -1.8334E+00
        6      19.8529419            -3.2564E-01
        7      19.8529419            -3.2564E-01
        8      20.0911924            -2.6273E-01
        9      20.0911924            -2.6273E-01
       10      21.2871188            -2.5222E-01
 
             1            90.6          6.7378E-02                      0

    State    Exc. energy (eV)      Convergence (eV)
        1       2.8003500            -3.3675E-02
        2       2.8003500            -3.3675E-02
        3       6.2284281            -3.4349E-02
        4       6.2284281            -3.4349E-02
        5       7.6938032            -8.7073E-02
        6      19.8189872            -3.3955E-02
        7      19.8189872            -3.3955E-02
        8      20.0592091            -3.1983E-02
        9      20.0592091            -3.1983E-02
       10      21.0049497            -2.8217E-01
 
             2            94.2          1.0370E-02                      0

    State    Exc. energy (eV)      Convergence (eV)
        1       2.8003481            -1.9495E-06
        2       2.8003481            -1.9495E-06
        3       6.2284264            -1.6800E-06
        4       6.2284264            -1.6800E-06
        5       7.6936817            -1.2153E-04
        6      19.8189769            -1.0349E-05
        7      19.8189769            -1.0349E-05
        8      20.0591603            -4.8745E-05
        9      20.0591603            -4.8745E-05
       10      20.8881725            -1.1678E-01
 
             3            95.2          4.2915E-03                      0

    State    Exc. energy (eV)      Convergence (eV)
        1       2.8003481            -7.7235E-10
        2       2.8003481            -7.7236E-10
        3       6.2284264            -5.6998E-10
        4       6.2284264            -5.7000E-10
        5       7.6936816            -8.6800E-08
        6      19.8189769            -1.3778E-08
        7      19.8189769            -1.3778E-08
        8      20.0591603            -7.3855E-08
        9      20.0591603            -7.3855E-08
       10      20.6708233            -2.1735E-01
 
             4            96.9          7.9874E-03                      9

    State    Exc. energy (eV)      Convergence (eV)
        1       2.8003481            -4.1540E-14
        2       2.8003481            -3.7008E-14
        3       6.2284264            -5.7400E-14
        4       6.2284264            -4.6827E-14
        5       7.6936816            -3.5121E-11
        6      19.8189769            -1.7643E-12
        7      19.8189769            -1.7855E-12
        8      20.0591603            -1.1465E-11
        9      20.0591603            -1.1441E-11
       10      20.6684753            -2.3480E-03
 
             5           104.5          8.6286E-05                      9

    State    Exc. energy (eV)      Convergence (eV)
        1       2.8003481            -3.7008E-14
        2       2.8003481            -1.6994E-14
        3       6.2284264             1.5105E-15
        4       6.2284264            -3.7763E-15
        5       7.6936816            -2.7190E-14
        6      19.8189769            -4.5316E-14
        7      19.8189769             6.0421E-15
        8      20.0591603             1.5105E-14
        9      20.0591603            -2.7190E-14
       10      20.6684647            -1.0637E-05
 
             6            66.3          3.9091E-07                      9
 ------------------------- Restart Davidson iterations -------------------------

    State    Exc. energy (eV)      Convergence (eV)
        1       2.8003481             3.6630E-14
        2       2.8003481             1.0951E-14
        3       6.2284264            -2.2658E-15
        4       6.2284264             6.7974E-15
        5       7.6936816             3.0211E-14
        6      19.8189769             2.7190E-14
        7      19.8189769            -1.5105E-14
        8      20.0591603            -1.2084E-14
        9      20.0591603             1.8126E-14
       10      20.6684647             3.6253E-14
 
             7            63.6          1.3461E-15                     10
 
 -------------------------------------------------------------------------------
 -  TDDFPT run converged in 7 iteration(s) 
 -------------------------------------------------------------------------------

 R-TDDFPT states of multiplicity 3
 Transition dipoles calculated using length formulation

         State    Excitation        Transition dipole (a.u.)        Oscillator
         number   energy (eV)       x           y           z     strength (a.u.)
         ------------------------------------------------------------------------
 TDDFPT|      1       2.80035   0.0000E+00  0.0000E+00  0.0000E+00   0.00000E+00
 TDDFPT|      2       2.80035   0.0000E+00  0.0000E+00  0.0000E+00   0.00000E+00
 TDDFPT|      3       6.22843   0.0000E+00  0.0000E+00  0.0000E+00   0.00000E+00
 TDDFPT|      4       6.22843   0.0000E+00  0.0000E+00  0.0000E+00   0.00000E+00
 TDDFPT|      5       7.69368   0.0000E+00  0.0000E+00  0.0000E+00   0.00000E+00
 TDDFPT|      6      19.81898   0.0000E+00  0.0000E+00  0.0000E+00   0.00000E+00
 TDDFPT|      7      19.81898   0.0000E+00  0.0000E+00  0.0000E+00   0.00000E+00
 TDDFPT|      8      20.05916   0.0000E+00  0.0000E+00  0.0000E+00   0.00000E+00
 TDDFPT|      9      20.05916   0.0000E+00  0.0000E+00  0.0000E+00   0.00000E+00
 TDDFPT|     10      20.66846   0.0000E+00  0.0000E+00  0.0000E+00   0.00000E+00

 TDDFPT : CheckSum  =  0.171189E+01
 
 -------------------------------------------------------------------------------
 -                            Excitation analysis                              -
 -------------------------------------------------------------------------------
        State             Occupied              Virtual             Excitation
        number             orbital              orbital             amplitude
 -------------------------------------------------------------------------------
             1   2.80035 eV
                                 9                   10              -0.999686
             2   2.80035 eV
                                 8                   10               0.999686
             3   6.22843 eV
                                 7                   10              -0.999701
             4   6.22843 eV
                                 6                   10              -0.999701
             5   7.69368 eV
                                 5                   10              -0.998601
             6  19.81898 eV
                                 9                   11              -0.997838
                                 7                   12               0.057049
             7  19.81898 eV
                                 8                   11               0.997838
                                 6                   12              -0.057049
             8  20.05916 eV
                                 9                   12               0.996953
                                 7                   11              -0.065418
             9  20.05916 eV
                                 8                   12              -0.996953
                                 6                   11               0.065418
            10  20.66846 eV
                                 8                   13               0.689665
                                 9                   14               0.689592
                                 9                   13              -0.129772
                                 8                   14               0.129772
                                 6                   16              -0.071266
                                 7                   17              -0.071260
 -------------------------------------------------------------------------------
 
 -------------------------------------------------------------------------------
 -                            Natural Orbital analysis                         -
 -------------------------------------------------------------------------------
   STATE NR.      1             2.80035 eV
     Particle-Hole state: 1   Spin:1     Eigenvalue: 0.99954   Sum Eigv: 0.99954
   STATE NR.      2             2.80035 eV
     Particle-Hole state: 1   Spin:1     Eigenvalue: 0.99954   Sum Eigv: 0.99954
   STATE NR.      3             6.22843 eV
     Particle-Hole state: 1   Spin:1     Eigenvalue: 0.99956   Sum Eigv: 0.99956
   STATE NR.      4             6.22843 eV
     Particle-Hole state: 1   Spin:1     Eigenvalue: 0.99956   Sum Eigv: 0.99956
   STATE NR.      5             7.69368 eV
     Particle-Hole state: 1   Spin:1     Eigenvalue: 0.99919   Sum Eigv: 0.99919
   STATE NR.      6            19.81898 eV
     Particle-Hole state: 1   Spin:1     Eigenvalue: 0.99573   Sum Eigv: 0.99573
   STATE NR.      7            19.81898 eV
     Particle-Hole state: 1   Spin:1     Eigenvalue: 0.99573   Sum Eigv: 0.99573
   STATE NR.      8            20.05916 eV
     Particle-Hole state: 1   Spin:1     Eigenvalue: 0.99417   Sum Eigv: 0.99417
   STATE NR.      9            20.05916 eV
     Particle-Hole state: 1   Spin:1     Eigenvalue: 0.99417   Sum Eigv: 0.99417
   STATE NR.     10            20.66846 eV
     Particle-Hole state: 1   Spin:1     Eigenvalue: 0.49256   Sum Eigv: 0.49256
     Particle-Hole state: 2   Spin:1     Eigenvalue: 0.49246   Sum Eigv: 0.98502
 -------------------------------------------------------------------------------
 
                       triplet excitations finished                             
                                                                                
 -------------------------------------------------------------------------------
 -                      TDDFPT SINGLET ENERGIES                                -
 -------------------------------------------------------------------------------
 
 -------------------------------------------------------------------------------
 -                            TDDFPT Initial Guess                             -
 -------------------------------------------------------------------------------
          State         Occupied      ->      Virtual          Excitation
          number         orbital              orbital          energy (eV)
 -------------------------------------------------------------------------------
             1                9                   10              3.63549
             2                8                   10              3.63549
             3                7                   10              7.01991
             4                6                   10              7.01991
             5                5                   10              9.61432
             6                9                   11             20.17859
             7                8                   11             20.17859
             8                9                   12             20.35392
             9                8                   12             20.35392
            10                9                   13             21.53934

      Number of active states:                                        477
 -------------------------------------------------------------------------------
 
 -------------------------------------------------------------------------------
 -                      TDDFPT WAVEFUNCTION OPTIMIZATION                       -
 -------------------------------------------------------------------------------

          Step            Time         Convergence           Conv. states
 -------------------------------------------------------------------------------

    State    Exc. energy (eV)      Convergence (eV)
        1       4.4150258             7.7954E-01
        2       4.4150258             7.7954E-01
        3       7.6815571             6.6165E-01
        4       7.6815571             6.6165E-01
        5      20.4266519             1.0812E+01
        6      20.4266519             2.4807E-01
        7      20.4723677             2.9378E-01
        8      20.4723677             1.1844E-01
        9      20.6935303             3.3961E-01
       10      22.4980039             9.5867E-01
 
             1            92.4          3.9735E-01                      0

    State    Exc. energy (eV)      Convergence (eV)
        1       4.3531268            -6.1899E-02
        2       4.3531268            -6.1899E-02
        3       7.6404068            -4.1150E-02
        4       7.6404068            -4.1150E-02
        5      15.9626240            -4.4640E+00
        6      20.3905517            -3.6100E-02
        7      20.3905517            -8.1816E-02
        8      20.4488325            -2.3535E-02
        9      20.4488325            -2.4470E-01
       10      21.5874272            -9.1058E-01
 
             2            97.3          1.6405E-01                      0

    State    Exc. energy (eV)      Convergence (eV)
        1       4.3527928            -3.3399E-04
        2       4.3527928            -3.3399E-04
        3       7.6403237            -8.3169E-05
        4       7.6403237            -8.3169E-05
        5      15.8452493            -1.1737E-01
        6      20.3904262            -1.2555E-04
        7      20.3904262            -1.2555E-04
        8      20.4488245            -8.0060E-06
        9      20.4488245            -8.0060E-06
       10      21.5416368            -4.5790E-02
 
             3           100.6          4.3134E-03                      0

    State    Exc. energy (eV)      Convergence (eV)
        1       4.3527927            -2.5452E-08
        2       4.3527927            -2.5452E-08
        3       7.6403237            -3.5276E-09
        4       7.6403237            -3.5276E-09
        5      15.8422627            -2.9866E-03
        6      20.3904261            -3.6513E-08
        7      20.3904261            -3.6513E-08
        8      20.4488245            -4.7302E-10
        9      20.4488245            -4.7208E-10
       10      21.5393415            -2.2954E-03
 
             4           103.0          1.0976E-04                      8

    State    Exc. energy (eV)      Convergence (eV)
        1       4.3527927            -4.4093E-12
        2       4.3527927            -4.4191E-12
        3       7.6403237            -6.3442E-14
        4       7.6403237            -4.8337E-14
        5      15.8422606            -2.1362E-06
        6      20.3904261            -4.4410E-12
        7      20.3904261            -4.4228E-12
        8      20.4488245            -5.1358E-14
        9      20.4488245            -1.1148E-12
       10      21.5393365            -4.9281E-06
 
             5           107.8          1.8110E-07                      8

    State    Exc. energy (eV)      Convergence (eV)
        1       4.3527927             1.5105E-15
        2       4.3527927             6.0421E-15
        3       7.6403237             0.0000E+00
        4       7.6403237            -1.8126E-14
        5      15.8422606            -1.8440E-09
        6      20.3904261             0.0000E+00
        7      20.3904261            -3.0211E-15
        8      20.4488245            -3.0211E-14
        9      20.4488245             6.0421E-15
       10      21.5393365            -5.0428E-08
 
             6            68.5          1.8532E-09                     10
 ------------------------- Restart Davidson iterations -------------------------

    State    Exc. energy (eV)      Convergence (eV)
        1       4.3527927             3.7763E-15
        2       4.3527927            -1.5105E-15
        3       7.6403237             3.0211E-15
        4       7.6403237             1.5105E-15
        5      15.8422606             1.2084E-14
        6      20.3904261             1.2084E-14
        7      20.3904261             1.2084E-14
        8      20.4488245             4.8337E-14
        9      20.4488245            -2.1147E-14
       10      21.5393365            -1.2084E-14
 
             7            67.4          1.7764E-15                     10
 
 -------------------------------------------------------------------------------
 -  TDDFPT run converged in 7 iteration(s) 
 -------------------------------------------------------------------------------

 R-TDDFPT states of multiplicity 1
 Transition dipoles calculated using length formulation

         State    Excitation        Transition dipole (a.u.)        Oscillator
         number   energy (eV)       x           y           z     strength (a.u.)
         ------------------------------------------------------------------------
 TDDFPT|      1       4.35279  -9.6635E-09  3.7863E-04  2.9969E-04   2.48664E-08
 TDDFPT|      2       4.35279   8.1388E-09 -2.9969E-04  3.7863E-04   2.48664E-08
 TDDFPT|      3       7.64032  -8.1410E-09  8.4645E-10  5.4566E-10   1.25956E-17
 TDDFPT|      4       7.64032   2.6733E-08 -5.5641E-10  8.5229E-10   1.33961E-16
 TDDFPT|      5      15.84226  -1.6700E+00 -6.5332E-09 -8.5243E-09   1.08251E+00
 TDDFPT|      6      20.39043  -3.1793E-09  6.5356E-08  5.1877E-08   3.48331E-15
 TDDFPT|      7      20.39043   1.9369E-08 -5.1925E-08  6.5451E-08   3.67432E-15
 TDDFPT|      8      20.44882  -5.0066E-09  2.1274E-01  1.6861E-01   3.69153E-02
 TDDFPT|      9      20.44882   2.4901E-09 -1.6861E-01  2.1274E-01   3.69153E-02
 TDDFPT|     10      21.53934   1.2971E-06  7.2664E-10  3.7211E-09   8.87868E-13

 TDDFPT : CheckSum  =  0.185116E+01
 
 -------------------------------------------------------------------------------
 -                            Excitation analysis                              -
 -------------------------------------------------------------------------------
        State             Occupied              Virtual             Excitation
        number             orbital              orbital             amplitude
 -------------------------------------------------------------------------------
             1   4.35279 eV
                                 9                   10               0.999615
             2   4.35279 eV
                                 8                   10              -0.999615
             3   7.64032 eV
                                 7                   10               0.999668
             4   7.64032 eV
                                 6                   10              -0.999668
             5  15.84226 eV
                                 5                   10               0.880422
                                 9                   14              -0.294372
                                 8                   13              -0.294372
                                 5                   12               0.139990
                                 6                   16               0.072350
                                 7                   17               0.072350
                                 3                   10              -0.068567
                                 4                   11               0.058374
                                 8                   14              -0.055394
                                 9                   13               0.055394
             6  20.39043 eV
                                 9                   11              -0.999022
             7  20.39043 eV
                                 8                   11               0.999022
             8  20.44882 eV
                                 9                   12               0.998320
                                 7                   11               0.053517
             9  20.44882 eV
                                 8                   12              -0.998320
                                 6                   11              -0.053517
            10  21.53934 eV
                                 9                   13              -0.694914
                                 8                   14               0.694907
                                 9                   14              -0.130779
                                 8                   13              -0.130752
 -------------------------------------------------------------------------------
 
 -------------------------------------------------------------------------------
 -                            Natural Orbital analysis                         -
 -------------------------------------------------------------------------------
   STATE NR.      1             4.35279 eV
     Particle-Hole state: 1   Spin:1     Eigenvalue: 0.99934   Sum Eigv: 0.99934
   STATE NR.      2             4.35279 eV
     Particle-Hole state: 1   Spin:1     Eigenvalue: 0.99934   Sum Eigv: 0.99934
   STATE NR.      3             7.64032 eV
     Particle-Hole state: 1   Spin:1     Eigenvalue: 0.99942   Sum Eigv: 0.99942
   STATE NR.      4             7.64032 eV
     Particle-Hole state: 1   Spin:1     Eigenvalue: 0.99942   Sum Eigv: 0.99942
   STATE NR.      5            15.84226 eV
     Particle-Hole state: 1   Spin:1     Eigenvalue: 0.79984   Sum Eigv: 0.79984
     Particle-Hole state: 2   Spin:1     Eigenvalue: 0.09232   Sum Eigv: 0.89216
     Particle-Hole state: 3   Spin:1     Eigenvalue: 0.09232   Sum Eigv: 0.98448
   STATE NR.      6            20.39043 eV
     Particle-Hole state: 1   Spin:1     Eigenvalue: 0.99816   Sum Eigv: 0.99816
   STATE NR.      7            20.39043 eV
     Particle-Hole state: 1   Spin:1     Eigenvalue: 0.99816   Sum Eigv: 0.99816
   STATE NR.      8            20.44882 eV
     Particle-Hole state: 1   Spin:1     Eigenvalue: 0.99678   Sum Eigv: 0.99678
   STATE NR.      9            20.44882 eV
     Particle-Hole state: 1   Spin:1     Eigenvalue: 0.99678   Sum Eigv: 0.99678
   STATE NR.     10            21.53934 eV
     Particle-Hole state: 1   Spin:1     Eigenvalue: 0.50002   Sum Eigv: 0.50002
     Particle-Hole state: 2   Spin:1     Eigenvalue: 0.49998   Sum Eigv: 1.00000
 -------------------------------------------------------------------------------
 
 -------------------------------------------------------------------------------
 -                         START SOC CALCULATIONS                              -
 -------------------------------------------------------------------------------
Starting from TDDFPT Excited States:
      STATE          SINGLET/eV         TRIPLET/eV
        1              4.35279         2.80035
        2              4.35279         2.80035
        3              7.64032         6.22843
        4              7.64032         6.22843
        5             15.84226         7.69368
        6             20.39043        19.81898
        7             20.39043        19.81898
        8             20.44882        20.05916
        9             20.44882        20.05916
       10             21.53934        20.66846
Starting restricted closed shell:

 *** WARNING in qs_tddfpt2_soc.F:1221 :: start building Dipole ***

Diagonlzing SOC-Matrix
Ground state stabilisation:            2.7807723146

 *** WARNING in qs_tddfpt2_soc.F:1018 :: DEBUG OSC ***

------------------------------------------------------------------------------
-                         SOC CORRECTED SPECTRUM                             -
------------------------------------------------------------------------------
-     STATE   SOC-corrected exc. energies [eV]  Oscillator strengths [a.u.]  -
------------------------------------------------------------------------------
        1                    2.78077         0.00000
        2                    2.78077         0.00000
        3                    2.80027         0.00000
        4                    2.80027         0.00000
        5                    2.82027         0.00000
        6                    2.82035         0.00000
        7                    4.35319         0.00000
        8                    4.35319         0.00000
        9                    6.21269         0.00000
       10                    6.21269         0.00000
       11                    6.22849         0.00000
       12                    6.22849         0.00000
       13                    6.24466         0.00000
       14                    6.24490         0.00002
       15                    7.64075         0.00000
       16                    7.64075         0.00000
       17                    7.69406         0.00000
       18                    7.69409         0.00000
       19                    7.69409         0.00000
       20                   15.84257         1.08249
       21                   19.79942         0.00000
       22                   19.79942         0.00000
       23                   19.81854         0.00000
       24                   19.81854         0.00000
       25                   19.83902         0.00000
       26                   19.83902         0.00000
       27                   20.03963         0.00000
       28                   20.03963         0.00000
       29                   20.05839         0.00009
       30                   20.05839         0.00009
       31                   20.07911         0.00000
       32                   20.07918         0.00000
       33                   20.39135         0.00000
       34                   20.39135         0.00000
       35                   20.45003         0.03682
       36                   20.45003         0.03682
       37                   20.66861         0.00000
       38                   20.66879         0.00001
       39                   20.66879         0.00001
       40                   21.53978         0.00000
TDDFT+SOC : CheckSum (eV)       521.58434880
------------------------------------------------------------------------
-                            Splittings                                -
------------------------------------------------------------------------
-  STATE   MULT     exc.energies[eV]    splittings[eV]                 -
------------------------------------------------------------------------
       1       T             2.78077231            -0.01957575
       2       T             2.78077231            -0.01957575
       3       T             2.80027420            -0.00007386
       4       T             2.80027420            -0.00007386
       5       T             2.82026959             0.01992153
       6       T             2.82035434             0.02000628
       7       S             4.35319148             0.00039874
       8       S             4.35319148             0.00039874
       9       T             6.21268955            -0.01573688
      10       T             6.21268955            -0.01573688
      11       T             6.22849219             0.00006575
[...]
      40       S            21.53977598             0.00043950
------------------------------------------------------------------------
SOC Calculation terminated
Returning to TDDFPT for Force calculation and deallocations

 ENERGY| Total FORCE_EVAL ( QS ) energy [a.u.]:             -199.423008169186943

 -------------------------------------------------------------------------------
 -                                                                             -
 -                                DBCSR STATISTICS                             -
 -                                                                             -
 -------------------------------------------------------------------------------
 COUNTER                                    TOTAL       BLAS       SMM       ACC
 flops     9 x     9 x     9               260982       0.0%    100.0%      0.0%
 flops    31 x    21 x    31               645792       0.0%    100.0%      0.0%
 flops    31 x    32 x    31               984064       0.0%    100.0%      0.0%
 flops    31 x     9 x     9              1275588       0.0%    100.0%      0.0%
 flops    31 x    31 x     9             15879564       0.0%    100.0%      0.0%
 flops     9 x     9 x    31             21112488       0.0%    100.0%      0.0%
 flops    31 x     9 x    31             60923556       0.0%    100.0%      0.0%
 flops inhomo. stacks                           0       0.0%      0.0%      0.0%
 flops total                       101.082034E+06       0.0%    100.0%      0.0%
 flops max/rank                     33.077954E+06       0.0%    100.0%      0.0%
 matmuls inhomo. stacks                         0       0.0%      0.0%      0.0%
 matmuls total                               9109       0.0%    100.0%      0.0%
 number of processed stacks                  8173       0.0%    100.0%      0.0%
 average stack size                                     0.0       1.1       0.0
 marketing flops                   108.574864E+06
 -------------------------------------------------------------------------------
 # multiplications                           1472
 max memory usage/rank             639.721472E+06
 # max total images/rank                        1
 # max 3D layers                                1
 # MPI messages exchanged                 1318912
 MPI messages size (bytes):
  total size                       230.865872E+06
  min size                           0.000000E+00
  max size                           7.936000E+03
  average size                     175.042664E+00
 MPI breakdown and total messages size (bytes):
             size <=      128             1265033                        0
       128 < size <=     8192               53879                230865880
      8192 < size <=    32768                   0                        0
     32768 < size <=   131072                   0                        0
    131072 < size <=  4194304                   0                        0
   4194304 < size <= 16777216                   0                        0
  16777216 < size                               0                        0
 -------------------------------------------------------------------------------
 -                                                                             -
 -                      DBCSR MESSAGE PASSING PERFORMANCE                      -
 -                                                                             -
 -------------------------------------------------------------------------------
 ROUTINE             CALLS      AVE VOLUME [Bytes]
 MP_Bcast                8                     12.
 MP_Allreduce         6326                      8.
 MP_Alltoall         18798                   9393.
 MP_ISend            47096                    433.
 MP_IRecv            47096                    224.
 -------------------------------------------------------------------------------

 -------------------------------------------------------------------------------
 -                                                                             -
 -                                DBM STATISTICS                               -
 -                                                                             -
 -------------------------------------------------------------------------------
    M  x    N  x    K                                          COUNT     PERCENT
 -------------------------------------------------------------------------------

 -------------------------------------------------------------------------------
 -                                                                             -
 -                                GRID STATISTICS                              -
 -                                                                             -
 -------------------------------------------------------------------------------
 LP    KERNEL             BACKEND                              COUNT     PERCENT
 2     collocate general  CPU                                  12416      11.74%
 2     integrate general  CPU                                  12160      11.50%
 2     collocate ortho    CPU                                  10584      10.01%
 2     integrate ortho    CPU                                  10395       9.83%
 1     collocate ortho    CPU                                   9072       8.58%
 3     collocate ortho    CPU                                   9072       8.58%
 1     integrate ortho    CPU                                   8910       8.43%
 3     integrate ortho    CPU                                   8910       8.43%
 4     collocate ortho    CPU                                   5040       4.77%
 4     integrate ortho    CPU                                   4950       4.68%
 0     collocate ortho    CPU                                   4536       4.29%
 0     integrate ortho    CPU                                   4455       4.21%
 5     collocate ortho    CPU                                   2016       1.91%
 5     integrate ortho    CPU                                   1980       1.87%
 6     collocate ortho    CPU                                    504       0.48%
 6     integrate ortho    CPU                                    495       0.47%
 0     collocate general  CPU                                    128       0.12%
 0     integrate general  CPU                                    128       0.12%
 -------------------------------------------------------------------------------

 MEMORY| Estimated peak process memory [MiB]                                 611

 -------------------------------------------------------------------------------
 ----                             MULTIGRID INFO                            ----
 -------------------------------------------------------------------------------
 count for grid        1:         107599          cutoff [a.u.]          600.00
 count for grid        2:          17756          cutoff [a.u.]          200.00
 count for grid        3:           7740          cutoff [a.u.]           66.67
 count for grid        4:           1932          cutoff [a.u.]           22.22
 count for grid        5:              0          cutoff [a.u.]            7.41
 total gridlevel count  :         135027

 -------------------------------------------------------------------------------
 -                                                                             -
 -                         MESSAGE PASSING PERFORMANCE                         -
 -                                                                             -
 -------------------------------------------------------------------------------

 ROUTINE             CALLS      AVE VOLUME [Bytes]
 MP_Group                6
 MP_Bcast             1018                 184126.
 MP_Allreduce         7487                   8012.
 MP_Sync                86
 MP_Alltoall          4752                2770372.
 MP_SendRecv         42336                  49840.
 MP_ISendRecv        41580                  49840.
 MP_Wait             83487
 MP_comm_split          81
 MP_ISend            37944                 182947.
 MP_IRecv            39272                 176806.
 -------------------------------------------------------------------------------


 -------------------------------------------------------------------------------
 -                                                                             -
 -                           R E F E R E N C E S                               -
 -                                                                             -
 -------------------------------------------------------------------------------
 
 CP2K version 2023.2 (Development Version), the CP2K developers group (2023).
 CP2K is freely available from https://www.cp2k.org/ .

 Kuehne,Thomas D.; Iannuzzi,Marcella; Del Ben,Mauro;
 Rybkin,Vladimir V.; Seewald,Patrick; Stein,Frederick; Laino,Teodoro;
 Khaliullin,Rustam Z.; Schuett,Ole; Schiffmann,Florian; Golze,Dorothea;
 Wilhelm,Jan; Chulkov,Sergey; Bani-Hashemian,Mohammad Hossein;
 Weber,Valery; Borstnik,Urban; Taillefumier,Mathieu;
 Jakobovits,Alice Shoshana; Lazzaro,Alfio; Pabst,Hans; Mueller,Tiziano;
 Schade,Robert; Guidon,Manuel; Andermatt,Samuel; Holmberg,Nico;
 Schenter,Gregory K.; Hehn,Anna; Bussy,Augustin; Belleflamme,Fabian;
 Tabacchi,Gloria; Gloess,Andreas; Lass,Michael; Bethune,Iain;
 Mundy,Christopher J.; Plessl,Christian; Watkins,Matt;
 VandeVondele,Joost; Krack,Matthias; Hutter,Juerg. 
 The Journal of Chemical Physics, 152 (19), (2020). 
 CP2K: An electronic structure and molecular dynamics software package -
 Quickstep: Efficient and accurate electronic structure calculations.
 https://doi.org/10.1063/5.0007045

 Schuett, Ole; Messmer, Peter; Hutter, Juerg; VandeVondele, Joost. 
 Electronic Structure Calculations on Graphics Processing Units, John
 Wiley & Sons, Ltd, 173-190 (2016). 
 GPU-Accelerated Sparse Matrix-Matrix Multiplication for
 Linear Scaling Density Functional Theory.
 https://doi.org/10.1002/9781118670712.ch8

 Heinecke, A; Henry, G; Hutchinson, M; Pabst, H. 
 Proceedings of Intl. Supercomputing Conference, 981-991 (2016). 
 LIBXSMM: Accelerating Small Matrix Multiplications
 by Runtime Code Generation.
 https://doi.org/10.1109/SC.2016.83

 Borstnik, U; VandeVondele, J; Weber, V; Hutter, J. 
 PARALLEL COMPUTING, 40 (5-6), 47-58 (2014). 
 Sparse matrix multiplication: The distributed block-compressed sparse
 row library.
 https://doi.org/10.1016/j.parco.2014.03.012

 Hutter, J; Iannuzzi, M; Schiffmann, F; VandeVondele, J. 
 WIREs Comput Mol Sci., 4 (1), 15-25 (2014). 
 CP2K: atomistic simulations of condensed matter systems.
 https://doi.org/10.1002/wcms.1159

 Frigo, M; Johnson, SG. 
 PROCEEDINGS OF THE IEEE, 93 (2), 216-231 (2005). 
 The design and implementation of FFTW3.
 https://doi.org/10.1109/JPROC.2004.840301

 Iannuzzi, M; Chassaing, T; Wallman, T; Hutter, J. 
 CHIMIA, 59 (7-8), 499-503 (2005). 
 Ground and excited state density functional calculations with the
 Gaussian and augmented-plane-wave method.
 https://doi.org/10.2533/000942905777676164

 VandeVondele, J; Hutter, J. 
 JOURNAL OF CHEMICAL PHYSICS, 118 (10), 4365-4369 (2003). 
 An efficient orbital transformation method for electronic structure
 calculations.
 https://doi.org/10.1063/1.1543154

 Martin,Richard L.. 
 The Journal of Chemical Physics, 118 (11), 4775-4777 (2003). 
 Natural transition orbitals.
 https://doi.org/10.1063/1.1558471

 Lippert, G; Hutter, J; Parrinello, M. 
 THEORETICAL CHEMISTRY ACCOUNTS, 103 (2), 124-140 (1999). 
 The Gaussian and augmented-plane-wave density functional method for ab
 initio molecular dynamics simulations.
 https://doi.org/10.1007/s002140050523

 Krack, M; Parrinello, M. 
 PHYSICAL CHEMISTRY CHEMICAL PHYSICS, 2 (10), 2105-2112 (2000). 
 All-electron ab-initio molecular dynamics.
 https://doi.org/10.1039/b001167n

 Martyna, GJ; Tuckerman, ME. 
 JOURNAL OF CHEMICAL PHYSICS, 110 (6), 2810-2821 (1999). 
 A reciprocal space based method for treating long range interactions in
 ab initio and force-field-based calculations in clusters.
 https://doi.org/10.1063/1.477923

 Perdew, JP; Burke, K; Ernzerhof, M. 
 PHYSICAL REVIEW LETTERS, 77 (18), 3865-3868 (1996). 
 Generalized gradient approximation made simple.
 https://doi.org/10.1103/PhysRevLett.77.3865


 -------------------------------------------------------------------------------
 -                                                                             -
 -                                T I M I N G                                  -
 -                                                                             -
 -------------------------------------------------------------------------------
 SUBROUTINE                       CALLS  ASD         SELF TIME        TOTAL TIME
                                MAXIMUM       AVERAGE  MAXIMUM  AVERAGE  MAXIMUM
 CP2K                                 1  1.0    0.238    0.305 1855.849 1855.854
 qs_energies                          1  2.0    0.000    0.011 1854.493 1854.508
 qs_energies_properties               1  3.0    0.000    0.000 1424.777 1424.792
 tddfpt                               1  4.0    0.003    0.011 1424.777 1424.792
 tddfpt_soc_energies                  1  5.0    0.000    0.002 1418.285 1418.303
 tddfpt_energies                      2  6.0    0.000    0.001 1379.233 1379.241
 tddfpt_davidson_solver               4  7.0    0.007    0.019 1293.353 1293.376
 tddfpt_compute_Aop_evects           14  8.0    0.000    0.000  923.348  923.424
 fhxc_kernel                         14  9.0    0.004    0.015  767.078  767.179
 dbcsr_multiply_generic            1472 10.7    0.127    0.193  651.929  660.818
 cp_dbcsr_sm_fm_multiply            606  9.3    0.009    0.020  602.246  606.945
 scf_env_do_scf                       1  3.0    0.000    0.003  422.595  422.625
 scf_env_do_scf_inner_loop           25  4.0    0.001    0.011  394.933  394.968
 dbcsr_complete_redistribute       1750 11.4    0.075    0.164  334.961  344.495
 multiply_cannon                   1472 11.7    4.257    4.821  297.263  308.218
 qs_scf_new_mos                      25  5.0    0.000    0.000  303.848  304.203
 qs_scf_loop_do_ot                   25  6.0    0.000    0.000  303.848  304.203
 ot_scf_mini                         25  7.0    0.001    0.011  289.935  290.308
 copy_dbcsr_to_fm                   682 10.2    0.008    0.059  280.817  287.275
 tddfpt_orthonormalize_psi1_psi      16  7.9    0.010    0.071  279.522  281.943
 pw_transfer                       3690 12.2    0.201    0.253  276.302  278.156
 fft_wrap_pw1pw2                   3403 13.2    0.017    0.029  275.650  277.518
 fft3d_ps                          3403 15.2   12.234   13.408  271.309  273.057
 multiply_cannon_loop              1472 12.7    0.403    0.580  246.736  257.060
 multiply_cannon_multrec          11776 13.7  204.579  227.305  204.586  227.310
 cp_dbcsr_sm_fm_multiply_core       606 10.3    0.001    0.012  217.355  224.505
 mp_sum_l                          6401 11.1  209.775  215.095  209.775  215.095
 qs_rho_update_rho_low              168  9.2    0.005    0.018  194.781  196.071
 cp_dbcsr_plus_fm_fm_t_native       141 10.0    0.002    0.002  193.253  194.637
 ot_mini                             25  8.0    0.002    0.014  194.271  194.515
 copy_fm_to_dbcsr                  1068 10.6    0.004    0.015  186.812  194.039
 mp_alltoall_z22v                  3403 17.2  178.818  182.833  178.818  182.833
 mp_alltoall_d11v                  7713 12.6  153.476  166.300  153.476  166.300
 fft_wrap_pw1pw2_600               2070 14.4    1.850    2.082  161.846  163.455
 calculate_rho_elec                 168 10.2    0.087    0.095  159.202  160.432
 qs_ot_get_derivative                25  9.0    0.000    0.000  158.320  158.831
 tddfpt_apply_energy_diff            14  9.0    0.001    0.001  156.270  156.418
 integrate_v_rspace                 165  9.8    0.004    0.026  143.060  144.982
 dbcsr_desymmetrize_deep            683 11.2    0.014    0.044  132.133  139.149
 mp_alltoall_i22                   2460 12.3  126.244  137.270  126.244  137.270
 potential_pw2rs                    165 10.8    0.013    0.029  136.102  136.539
 density_rs2pw                      168 11.2    0.009    0.031  133.308  135.103
 cp_fm_trace_a1b1t1_aa             3880  9.0    8.978   14.389  125.677  127.581
 mp_sum_dv                         4519 10.2  122.802  126.255  122.802  126.255
 mp_waitall_1                    161975 14.6   80.057  112.015   80.057  112.015
 make_m2s                          2944 11.7    0.026    0.046  100.093  106.728
 make_images                       2944 12.7    8.331    9.081   99.413  104.391
 qs_ot_get_derivative_diag           19 10.0    0.000    0.000  101.597  102.083
 tddfpt_compute_residual_vects       10  8.0    0.000    0.001  100.618  100.864
 tddfpt_apply_xc_analytic           140 10.0    0.116    0.140   99.150   99.354
 xc_pw_derive                      1209 11.7    0.008    0.008   94.125   96.032
 mp_alltoall_i11v                  6014 12.4   94.075   95.747   94.075   95.747
 make_images_sizes                 2944 13.7    0.005    0.024   90.384   93.044
 mp_alltoall_i44                   2944 14.7   90.379   93.041   90.379   93.041
 x_to_yz                           1307 16.0    4.496    4.926   89.269   90.193
 yz_to_x                           1097 16.7    0.530    0.614   80.214   83.507
 mp_cart_sub                       1373 12.2   75.452   79.408   75.452   79.408
 transfer_pw2rs                     921 11.8    0.005    0.006   73.894   74.524
 mp_alltoall_z11v                   999 17.0   70.635   71.728   70.635   71.728
 qs_ks_update_qs_env                 27  5.0    0.000    0.000   66.120   66.577
 rebuild_ks_matrix                   25  6.0    0.000    0.000   65.867   66.339
 qs_ks_build_kohn_sham_matrix        25  7.0    0.010    0.031   65.867   66.339
 transfer_rs2pw                     938 12.1    0.008    0.019   63.480   65.007
 qs_ot_get_p                         27  7.9    0.000    0.000   63.283   63.615
 hybrid_alltoall_any               3627 14.3    0.031    0.309   52.418   59.405
 tddfpt_print_nto_analysis            2  7.0    0.003    0.014   56.437   56.730
 xc_pw_divergence                   165 11.7    0.003    0.003   53.028   54.811
 mp_sum_dm                          979 11.1   51.710   52.671   51.710   52.671
 xc_calc_2nd_deriv_analytical       420 11.1    5.743    6.527   51.736   52.265
 multiply_cannon_metrocomm1       11776 13.7    0.026    0.046   26.333   49.511
 mp_allgather_i34                  1472 12.7   45.354   47.298   45.354   47.298
 mp_waitany                       37944 13.8   43.650   46.008   43.650   46.008
 mp_cart_create                     691 12.1   40.282   44.674   40.282   44.674
 mp_sum_b                          1552 11.6   38.284   38.875   38.284   38.875
 tddfpt_soc                           1  6.0    0.000    0.000   38.059   38.074
 tddfpt_soc_rcs                       1  7.0    0.008    0.034   38.059   38.074
 xz_to_yz                           504 16.2    1.310    1.646   36.962   37.612
 transfer_pw2rs_200                 165 12.8    1.334    1.678   36.698   37.440
 mp_sum_d                          1450  7.9   35.036   37.221   35.036   37.221
 -------------------------------------------------------------------------------

 The number of warnings for this run is : 2
 
 -------------------------------------------------------------------------------
  **** **** ******  **  PROGRAM ENDED AT                 2023-12-06 09:44:48.424
 ***** ** ***  *** **   PROGRAM RAN ON                               nesh-clk489
 **    ****   ******    PROGRAM RAN BY                                  suphc355
 ***** **    ** ** **   PROGRAM PROCESS ID                               2994460
  **** **  *******  **  PROGRAM STOPPED IN /gxfs_work/cau/suphc355/homologes/X2/
                                           AE/F
