 DBCSR| CPU Multiplication driver                                           XSMM (U)
 DBCSR| Multrec recursion limit                                              512 (U)
 DBCSR| Multiplication stack size                                           1000 (D)
 DBCSR| Maximum elements for images                                    UNLIMITED (U)
 DBCSR| Multiplicative factor virtual images                                   1 (U)
 DBCSR| Use multiplication densification                                       T (D)
 DBCSR| Multiplication size stacks                                             3 (U)
 DBCSR| Use memory pool for CPU allocation                                     F (U)
 DBCSR| Number of 3D layers                                               SINGLE (U)
 DBCSR| Use MPI memory allocation                                              F (U)
 DBCSR| Use RMA algorithm                                                      F (U)
 DBCSR| Use Communication thread                                               T (U)
 DBCSR| Communication thread load                                             87 (D)
 DBCSR| MPI: My process id                                                     0
 DBCSR| MPI: Number of processes                                             128
 DBCSR| OMP: Current number of threads                                         1
 DBCSR| OMP: Max number of threads                                             1
 DBCSR| Split modifier for TAS multiplication algorithm                  1.0E+00 (U)


  **** **** ******  **  PROGRAM STARTED AT               2024-02-05 13:31:39.578
 ***** ** ***  *** **   PROGRAM STARTED ON                           nesh-clk577
 **    ****   ******    PROGRAM STARTED BY                              suphc355
 ***** **    ** ** **   PROGRAM PROCESS ID                                290830
  **** **  *******  **  PROGRAM STARTED IN /gxfs_work/cau/suphc355/homologes/X2/
                                           AE/F

 CP2K| version string:                 CP2K version 2024.1 (Development Version)
 CP2K| source code revision number:                                  git:b6f9133
 CP2K| cp2kflags: omp libint fftw3 libxc libgrpp parallel mpi_f08 scalapack cosm
 CP2K|            a xsmm spglib mkl
 CP2K| is freely available from                            https://www.cp2k.org/
 CP2K| Program compiled at                          Fr 26. Jan 09:14:30 CET 2024
 CP2K| Program compiled on                                           nesh-login3
 CP2K| Program compiled for                                                local
 CP2K| Data directory path            /gxfs_home/cau/suphc355/software/cp2k/data
 CP2K| Input file name                                                    AE.inp
 
 GLOBAL| Force Environment number                                              1
 GLOBAL| Basis set file name                                 ../../../basis_zora
 GLOBAL| Potential file name                                           POTENTIAL
 GLOBAL| MM Potential file name                                     MM_POTENTIAL
 GLOBAL| Coordinate file name                                            opt.xyz
 GLOBAL| Method name                                                        CP2K
 GLOBAL| Project name                                                      F2_AE
 GLOBAL| Run type                                                         ENERGY
 GLOBAL| FFT library                                                       FFTW3
 GLOBAL| Diagonalization library                                       ScaLAPACK
 GLOBAL| DGEMM library                                                      BLAS
 GLOBAL| Orthonormality check for eigenvectors                          DISABLED
 GLOBAL| Matrix multiplication library                                     COSMA
 GLOBAL| All-to-all communication in single precision                          F
 GLOBAL| FFTs using library dependent lengths                                  F
 GLOBAL| Grid backend                                                       AUTO
 GLOBAL| Global print level                                               MEDIUM
 GLOBAL| MPI I/O enabled                                                       T
 GLOBAL| Total number of message passing processes                           128
 GLOBAL| Number of threads for this process                                    1
 GLOBAL| This output is from process                                           0
 GLOBAL| Stack size for threads created by OpenMP (OMP_STACKSIZE)        default
 GLOBAL| CPU model name                Intel(R) Xeon(R) Gold 6226R CPU @ 2.90GHz
 GLOBAL| CPUID                                                              1003

 MEMORY| system memory details [Kb]
 MEMORY|                        rank 0           min           max       average
 MEMORY| MemTotal            196683224     196683180     196683224     196683213
 MEMORY| MemFree             177184532     177184532     177563160     177442916
 MEMORY| Buffers                298560        244660        298560        262050
 MEMORY| Cached                 555152        483700        560148        536477
 MEMORY| Slab                   528484        526520        567028        537887
 MEMORY| SReclaimable           128760        119844        128760        123374
 MEMORY| MemLikelyFree       178167004     178167004     178463196     178364817


 *** Fundamental physical constants (SI units) ***

 *** Literature: B. J. Mohr and B. N. Taylor,
 ***             CODATA recommended values of the fundamental physical
 ***             constants: 2006, Web Version 5.1
 ***             http://physics.nist.gov/constants

 Speed of light in vacuum [m/s]                             2.99792458000000E+08
 Magnetic constant or permeability of vacuum [N/A**2]       1.25663706143592E-06
 Electric constant or permittivity of vacuum [F/m]          8.85418781762039E-12
 Planck constant (h) [J*s]                                  6.62606896000000E-34
 Planck constant (h-bar) [J*s]                              1.05457162825177E-34
 Elementary charge [C]                                      1.60217648700000E-19
 Electron mass [kg]                                         9.10938215000000E-31
 Electron g factor [ ]                                     -2.00231930436220E+00
 Proton mass [kg]                                           1.67262163700000E-27
 Fine-structure constant                                    7.29735253760000E-03
 Rydberg constant [1/m]                                     1.09737315685270E+07
 Avogadro constant [1/mol]                                  6.02214179000000E+23
 Boltzmann constant [J/K]                                   1.38065040000000E-23
 Atomic mass unit [kg]                                      1.66053878200000E-27
 Bohr radius [m]                                            5.29177208590000E-11

 *** Conversion factors ***

 [u] -> [a.u.]                                              1.82288848426455E+03
 [Angstrom] -> [Bohr] = [a.u.]                              1.88972613288564E+00
 [a.u.] = [Bohr] -> [Angstrom]                              5.29177208590000E-01
 [a.u.] -> [s]                                              2.41888432650478E-17
 [a.u.] -> [fs]                                             2.41888432650478E-02
 [a.u.] -> [J]                                              4.35974393937059E-18
 [a.u.] -> [N]                                              8.23872205491840E-08
 [a.u.] -> [K]                                              3.15774647902944E+05
 [a.u.] -> [kJ/mol]                                         2.62549961709828E+03
 [a.u.] -> [kcal/mol]                                       6.27509468713739E+02
 [a.u.] -> [Pa]                                             2.94210107994716E+13
 [a.u.] -> [bar]                                            2.94210107994716E+08
 [a.u.] -> [atm]                                            2.90362800883016E+08
 [a.u.] -> [eV]                                             2.72113838565563E+01
 [a.u.] -> [Hz]                                             6.57968392072181E+15
 [a.u.] -> [1/cm] (wave numbers)                            2.19474631370540E+05
 [a.u./Bohr**2] -> [1/cm]                                   5.14048714338585E+03
 

 CELL_TOP| Volume [angstrom^3]:                                      8000.000000
 CELL_TOP| Vector a [angstrom    20.000     0.000     0.000   |a| =    20.000000
 CELL_TOP| Vector b [angstrom     0.000    20.000     0.000   |b| =    20.000000
 CELL_TOP| Vector c [angstrom     0.000     0.000    20.000   |c| =    20.000000
 CELL_TOP| Angle (b,c), alpha [degree]:                                90.000000
 CELL_TOP| Angle (a,c), beta  [degree]:                                90.000000
 CELL_TOP| Angle (a,b), gamma [degree]:                                90.000000
 CELL_TOP| Numerically orthorhombic:                                         YES
 CELL_TOP| Periodicity                                                      NONE
 
 GENERATE|  Preliminary Number of Bonds generated:                             0
 GENERATE|  Achieved consistency in connectivity generation.

 CELL| Volume [angstrom^3]:                                          8000.000000
 CELL| Vector a [angstrom]:      20.000     0.000     0.000   |a| =    20.000000
 CELL| Vector b [angstrom]:       0.000    20.000     0.000   |b| =    20.000000
 CELL| Vector c [angstrom]:       0.000     0.000    20.000   |c| =    20.000000
 CELL| Angle (b,c), alpha [degree]:                                    90.000000
 CELL| Angle (a,c), beta  [degree]:                                    90.000000
 CELL| Angle (a,b), gamma [degree]:                                    90.000000
 CELL| Numerically orthorhombic:                                             YES
 CELL| Periodicity                                                          NONE

 CELL_REF| Volume [angstrom^3]:                                      8000.000000
 CELL_REF| Vector a [angstrom    20.000     0.000     0.000   |a| =    20.000000
 CELL_REF| Vector b [angstrom     0.000    20.000     0.000   |b| =    20.000000
 CELL_REF| Vector c [angstrom     0.000     0.000    20.000   |c| =    20.000000
 CELL_REF| Angle (b,c), alpha [degree]:                                90.000000
 CELL_REF| Angle (a,c), beta  [degree]:                                90.000000
 CELL_REF| Angle (a,b), gamma [degree]:                                90.000000
 CELL_REF| Numerically orthorhombic:                                         YES
 CELL_REF| Periodicity                                                      NONE

 *******************************************************************************
 *******************************************************************************
 **                                                                           **
 **     #####                         ##              ##                      **
 **    ##   ##            ##          ##              ##                      **
 **   ##     ##                       ##            ######                    **
 **   ##     ##  ##   ##  ##   #####  ##  ##   ####   ##    #####    #####    **
 **   ##     ##  ##   ##  ##  ##      ## ##   ##      ##   ##   ##  ##   ##   **
 **   ##  ## ##  ##   ##  ##  ##      ####     ###    ##   ######   ######    **
 **    ##  ###   ##   ##  ##  ##      ## ##      ##   ##   ##       ##        **
 **     #######   #####   ##   #####  ##  ##  ####    ##    #####   ##        **
 **           ##                                                    ##        **
 **                                                                           **
 **                                                ... make the atoms dance   **
 **                                                                           **
 **            Copyright (C) by CP2K developers group (2000-2024)             **
 **                      J. Chem. Phys. 152, 194103 (2020)                    **
 **                                                                           **
 *******************************************************************************

 DFT| Spin restricted Kohn-Sham (RKS) calculation                            RKS
 DFT| Multiplicity                                                             1
 DFT| Number of spin states                                                    1
 DFT| Charge                                                                   0
 DFT| Self-interaction correction (SIC)                                       NO
 DFT| Cutoffs: density                                              1.000000E-10
 DFT|          gradient                                             1.000000E-10
 DFT|          tau                                                  1.000000E-10
 DFT|          cutoff_smoothing_range                               0.000000E+00
 DFT| XC density smoothing                                                  NONE
 DFT| XC derivatives                                                          PW

 FUNCTIONAL| PBE:
 FUNCTIONAL| J.P.Perdew, K.Burke, M.Ernzerhof, Phys. Rev. Letter, vol. 77, n 18,
 FUNCTIONAL|  pp. 3865-3868, (1996)sx=0.750sc=1.000{spin unpolarized}           


 QS| Method:                                                                GAPW
 QS| Density plane wave grid type                        NON-SPHERICAL FULLSPACE
 QS| Number of grid levels:                                                    5
 QS| Density cutoff [a.u.]:                                                600.0
 QS| Multi grid cutoff [a.u.]: 1) grid level                               600.0
 QS|                           2) grid level                               200.0
 QS|                           3) grid level                                66.7
 QS|                           4) grid level                                22.2
 QS|                           5) grid level                                 7.4
 QS| Grid level progression factor:                                          3.0
 QS| Relative density cutoff [a.u.]:                                        40.0
 QS| Interaction thresholds: eps_pgf_orb:                                1.0E-30
 QS|                         eps_filter_matrix:                          0.0E+00
 QS|                         eps_core_charge:                            1.0E-17
 QS|                         eps_rho_gspace:                             1.0E-15
 QS|                         eps_rho_rspace:                             1.0E-15
 QS|                         eps_gvg_rspace:                             3.2E-08
 QS|                         eps_ppl:                                    1.0E-02
 QS|                         eps_ppnl:                                   3.2E-10
 QS| GAPW|      One center basis from orbital basis primitives
 QS| GAPW|                   eps_fit:                                    1.0E-04
 QS| GAPW|                   eps_iso:                                    1.0E-12
 QS| GAPW|                   eps_svd:                                    1.0E-08
 QS| GAPW|                   eps_cpc:                                    1.0E-15
 QS| GAPW|   atom-r-grid: quadrature:                                     GC_LOG
 QS| GAPW|      atom-s-grid:  max l :                                          6
 QS| GAPW|      max_l_rho0 :                                                   2


 ATOMIC KIND INFORMATION

  1. Atomic kind: F                                     Number of atoms:       2

     Orbital Basis Set                                                  TZP-ZORA

       Number of orbital shell sets:                                          11
       Number of orbital shells:                                              11
       Number of primitive Cartesian functions:                               19
       Number of Cartesian basis functions:                                   36
       Number of spherical basis functions:                                   31
       Norm type:                                                              2

       Normalised Cartesian orbitals:

                        Set   Shell   Orbital            Exponent    Coefficient

                          1       1    1s            16736.043322       1.994950
                                                      2517.472669       3.563656
                                                       575.952179       5.910146
                                                       164.577357       8.676762
                                                        54.273857      10.420306

                          2       1    1s               19.679311       3.929352
                                                         7.495431       1.453737

                          3       1    1s                1.885680       1.146862

                          4       1    1s                0.979868       0.701917

                          5       1    1s                0.323853       0.305965

                          6       1    1px              80.496023       4.297928
                                                        18.653993       4.750053
                                                         5.702737       4.140073
                                                         1.955478       2.296188
                          6       1    1py              80.496023       4.297928
                                                        18.653993       4.750053
                                                         5.702737       4.140073
                                                         1.955478       2.296188
                          6       1    1pz              80.496023       4.297928
                                                        18.653993       4.750053
                                                         5.702737       4.140073
                                                         1.955478       2.296188

                          7       1    1px               0.682954       0.884971
                          7       1    1py               0.682954       0.884971
                          7       1    1pz               0.682954       0.884971

                          8       1    1px               0.220446       0.215312
                          8       1    1py               0.220446       0.215312
                          8       1    1pz               0.220446       0.215312

                          9       1    1dx2              3.181470      12.474070
                          9       1    1dxy              3.181470      21.605722
                          9       1    1dxz              3.181470      21.605722
                          9       1    1dy2              3.181470      12.474070
                          9       1    1dyz              3.181470      21.605722
                          9       1    1dz2              3.181470      12.474070

                         10       1    1dx2              0.890324       1.343132
                         10       1    1dxy              0.890324       2.326373
                         10       1    1dxz              0.890324       2.326373
                         10       1    1dy2              0.890324       1.343132
                         10       1    1dyz              0.890324       2.326373
                         10       1    1dz2              0.890324       1.343132

                         11       1    1fx3              1.993560       6.952170
                         11       1    1fx2y             1.993560      15.545525
                         11       1    1fx2z             1.993560      15.545525
                         11       1    1fxy2             1.993560      15.545525
                         11       1    1fxyz             1.993560      26.925639
                         11       1    1fxz2             1.993560      15.545525
                         11       1    1fy3              1.993560       6.952170
                         11       1    1fy2z             1.993560      15.545525
                         11       1    1fyz2             1.993560      15.545525
                         11       1    1fz3              1.993560       6.952170

       Atomic covalent radius [Angstrom]:                                  0.720

       Atomic van der Waals radius [Angstrom]:                             1.470

     The atoms of this atomic kind are PAW atoms (GAPW):
       Hard Gaussian function radius:                                      1.512
       Rho0 radius:                                                        1.512
       Maximum GTO radius used for PAW projector construction:            24.566

     GAPW Soft Basis Set                                           TZP-ZORA_soft

       Number of orbital shell sets:                                          11
       Number of orbital shells:                                              11
       Number of primitive Cartesian functions:                                9
       Number of Cartesian basis functions:                                   36
       Number of spherical basis functions:                                   31
       Norm type:                                                              2

       Normalised Cartesian orbitals:

                        Set   Shell   Orbital            Exponent    Coefficient

                          1       1    1s         

                          2       1    1s         

                          3       1    1s                1.885680       1.146862

                          4       1    1s                0.979868       0.701917

                          5       1    1s                0.323853       0.305965

                          6       1    1px               1.955478       2.296188
                          6       1    1py               1.955478       2.296188
                          6       1    1pz               1.955478       2.296188

                          7       1    1px               0.682954       0.884971
                          7       1    1py               0.682954       0.884971
                          7       1    1pz               0.682954       0.884971

                          8       1    1px               0.220446       0.215312
                          8       1    1py               0.220446       0.215312
                          8       1    1pz               0.220446       0.215312

                          9       1    1dx2              3.181470      12.474070
                          9       1    1dxy              3.181470      21.605722
                          9       1    1dxz              3.181470      21.605722
                          9       1    1dy2              3.181470      12.474070
                          9       1    1dyz              3.181470      21.605722
                          9       1    1dz2              3.181470      12.474070

                         10       1    1dx2              0.890324       1.343132
                         10       1    1dxy              0.890324       2.326373
                         10       1    1dxz              0.890324       2.326373
                         10       1    1dy2              0.890324       1.343132
                         10       1    1dyz              0.890324       2.326373
                         10       1    1dz2              0.890324       1.343132

                         11       1    1fx3              1.993560       6.952170
                         11       1    1fx2y             1.993560      15.545525
                         11       1    1fx2z             1.993560      15.545525
                         11       1    1fxy2             1.993560      15.545525
                         11       1    1fxyz             1.993560      26.925639
                         11       1    1fxz2             1.993560      15.545525
                         11       1    1fy3              1.993560       6.952170
                         11       1    1fy2z             1.993560      15.545525
                         11       1    1fyz2             1.993560      15.545525
                         11       1    1fz3              1.993560       6.952170

     AE Potential information for                                            ALL

       Description:                                       All-electron potential
                                          Krack, Parrinello, PCCP 2, 2105 (2000)

       Gaussian exponent of the core charge distribution:              10.470541
       Electronic configuration (s p d ...):                           4   5   0


 MOLECULE KIND INFORMATION


 All atoms are their own molecule, skipping detailed information


 TOTAL NUMBERS AND MAXIMUM NUMBERS

  Total number of            - Atomic kinds:                                   1
                             - Atoms:                                          2
                             - Shell sets:                                    22
                             - Shells:                                        22
                             - Primitive Cartesian functions:                 38
                             - Cartesian basis functions:                     72
                             - Spherical basis functions:                     62

  Maximum angular momentum of the orbital basis functions:                     3


 MODULE QUICKSTEP: ATOMIC COORDINATES IN ANGSTROM

   Atom Kind Element         X             Y             Z       Z(eff)     Mass
      1    1 F     9      9.293508     10.000000     10.000000   9.0000  18.9984
      2    1 F     9     10.706492     10.000000     10.000000   9.0000  18.9984



 SCF PARAMETERS         Density guess:                                    ATOMIC
                        --------------------------------------------------------
                        max_scf:                                              20
                        max_scf_history:                                       0
                        max_diis:                                              4
                        --------------------------------------------------------
                        eps_scf:                                        1.00E-07
                        eps_scf_history:                                0.00E+00
                        eps_diis:                                       1.00E-01
                        eps_eigval:                                     1.00E-05
                        --------------------------------------------------------
                        level_shift [a.u.]:                             0.000000
                        --------------------------------------------------------
                        Outer loop SCF in use 
                        No variables optimised in outer loop
                        eps_scf                                         1.00E-07
                        max_scf                                               50
                        No outer loop optimization
                        step_size                                       5.00E-01

 PW_GRID| Information for grid number                                          1
 PW_GRID| Grid distributed over                                   128 processors
 PW_GRID| Real space group dimensions                                   128    1
 PW_GRID| the grid is blocked:                                                NO
 PW_GRID| Cutoff [a.u.]                                                   1200.0
 PW_GRID| spherical cutoff:                                                   NO
 PW_GRID|   Bounds   1           -300     299                Points:         600
 PW_GRID|   Bounds   2           -300     299                Points:         600
 PW_GRID|   Bounds   3           -300     299                Points:         600
 PW_GRID| Volume element (a.u.^3)  0.2499E-03     Volume (a.u.^3)     53986.6767
 PW_GRID| Grid span                                                    FULLSPACE
 PW_GRID|   Distribution                         Average         Max         Min
 PW_GRID|   G-Vectors                          1687500.0     1687800     1687200
 PW_GRID|   G-Rays                                2812.5        2813        2812
 PW_GRID|   Real Space Points                  1687500.0     1800000     1440000

 PW_GRID| Information for grid number                                          2
 PW_GRID| Number of the reference grid                                         1
 PW_GRID| Grid distributed over                                   128 processors
 PW_GRID| Real space group dimensions                                   128    1
 PW_GRID| the grid is blocked:                                                NO
 PW_GRID| Cutoff [a.u.]                                                    600.0
 PW_GRID| spherical cutoff:                                                   NO
 PW_GRID|   Bounds   1           -216     215                Points:         432
 PW_GRID|   Bounds   2           -216     215                Points:         432
 PW_GRID|   Bounds   3           -216     215                Points:         432
 PW_GRID| Volume element (a.u.^3)  0.6696E-03     Volume (a.u.^3)     53986.6767
 PW_GRID| Grid span                                                    FULLSPACE
 PW_GRID|   Distribution                         Average         Max         Min
 PW_GRID|   G-Vectors                           629856.0      630288      629424
 PW_GRID|   G-Rays                                1458.0        1459        1457
 PW_GRID|   Real Space Points                   629856.0      746496      559872

 PW_GRID| Information for grid number                                          3
 PW_GRID| Number of the reference grid                                         2
 PW_GRID| Grid distributed over                                   128 processors
 PW_GRID| Real space group dimensions                                   128    1
 PW_GRID| the grid is blocked:                                                NO
 PW_GRID| Cutoff [a.u.]                                                    200.0
 PW_GRID| spherical cutoff:                                                   NO
 PW_GRID|   Bounds   1           -121     121                Points:         243
 PW_GRID|   Bounds   2           -121     121                Points:         243
 PW_GRID|   Bounds   3           -121     121                Points:         243
 PW_GRID| Volume element (a.u.^3)  0.3762E-02     Volume (a.u.^3)     53986.6767
 PW_GRID| Grid span                                                    FULLSPACE
 PW_GRID|   Distribution                         Average         Max         Min
 PW_GRID|   G-Vectors                           112100.8      112266      111780
 PW_GRID|   G-Rays                                 461.3         462         460
 PW_GRID|   Real Space Points                   112100.8      118098       59049

 PW_GRID| Information for grid number                                          4
 PW_GRID| Number of the reference grid                                         2
 PW_GRID| Grid distributed over                                   128 processors
 PW_GRID| Real space group dimensions                                   128    1
 PW_GRID| the grid is blocked:                                                NO
 PW_GRID| Cutoff [a.u.]                                                     66.7
 PW_GRID| spherical cutoff:                                                   NO
 PW_GRID|   Bounds   1            -72      71                Points:         144
 PW_GRID|   Bounds   2            -72      71                Points:         144
 PW_GRID|   Bounds   3            -72      71                Points:         144
 PW_GRID| Volume element (a.u.^3)  0.1808E-01     Volume (a.u.^3)     53986.6767
 PW_GRID| Grid span                                                    FULLSPACE
 PW_GRID|   Distribution                         Average         Max         Min
 PW_GRID|   G-Vectors                            23328.0       23472       23184
 PW_GRID|   G-Rays                                 162.0         163         161
 PW_GRID|   Real Space Points                    23328.0       41472       20736

 PW_GRID| Information for grid number                                          5
 PW_GRID| Number of the reference grid                                         2
 PW_GRID| Grid distributed over                                   128 processors
 PW_GRID| Real space group dimensions                                     8   16
 PW_GRID| the grid is blocked:                                                NO
 PW_GRID| Cutoff [a.u.]                                                     22.2
 PW_GRID| spherical cutoff:                                                   NO
 PW_GRID|   Bounds   1            -40      40                Points:          81
 PW_GRID|   Bounds   2            -40      40                Points:          81
 PW_GRID|   Bounds   3            -40      40                Points:          81
 PW_GRID| Volume element (a.u.^3)  0.1016         Volume (a.u.^3)     53986.6767
 PW_GRID| Grid span                                                    FULLSPACE
 PW_GRID|   Distribution                         Average         Max         Min
 PW_GRID|   G-Vectors                             4151.9        4293        4050
 PW_GRID|   G-Rays                                  51.3          53          50
 PW_GRID|   Real Space Points                     4151.9        5346        4050

 PW_GRID| Information for grid number                                          6
 PW_GRID| Number of the reference grid                                         2
 PW_GRID| Grid distributed over                                   128 processors
 PW_GRID| Real space group dimensions                                     8   16
 PW_GRID| the grid is blocked:                                                NO
 PW_GRID| Cutoff [a.u.]                                                      7.4
 PW_GRID| spherical cutoff:                                                   NO
 PW_GRID|   Bounds   1            -24      23                Points:          48
 PW_GRID|   Bounds   2            -24      23                Points:          48
 PW_GRID|   Bounds   3            -24      23                Points:          48
 PW_GRID| Volume element (a.u.^3)  0.4882         Volume (a.u.^3)     53986.6767
 PW_GRID| Grid span                                                    FULLSPACE
 PW_GRID|   Distribution                         Average         Max         Min
 PW_GRID|   G-Vectors                              864.0         912         816
 PW_GRID|   G-Rays                                  18.0          19          17
 PW_GRID|   Real Space Points                      864.0         864         864

 POISSON| Solver                                          Martyna-Tuckerman (MT)
 POISSON| MT| Alpha                                                        7.000
 POISSON| MT| Relative cutoff                                                2.0
 POISSON| Periodicity                                                       NONE

 RS_GRID| Information for grid number                                          2
 RS_GRID|   Bounds   1           -216     215                Points:         432
 RS_GRID|   Bounds   2           -216     215                Points:         432
 RS_GRID|   Bounds   3           -216     215                Points:         432
 RS_GRID| Real space distribution over                                  4 groups
 RS_GRID| Real space distribution along direction                              1
 RS_GRID| Border size                                                         34
 RS_GRID| Real space distribution over                                  4 groups
 RS_GRID| Real space distribution along direction                              2
 RS_GRID| Border size                                                         34
 RS_GRID| Real space distribution over                                  8 groups
 RS_GRID| Real space distribution along direction                              3
 RS_GRID| Border size                                                         34
 RS_GRID|   Distribution                         Average         Max         Min
 RS_GRID|   Planes                                 176.0         176         176
 RS_GRID|   Distribution                         Average         Max         Min
 RS_GRID|   Planes                                 176.0         176         176
 RS_GRID|   Distribution                         Average         Max         Min
 RS_GRID|   Planes                                 122.0         122         122

 RS_GRID| Information for grid number                                          3
 RS_GRID|   Bounds   1           -121     121                Points:         243
 RS_GRID|   Bounds   2           -121     121                Points:         243
 RS_GRID|   Bounds   3           -121     121                Points:         243
 RS_GRID| Real space distribution over                                  4 groups
 RS_GRID| Real space distribution along direction                              1
 RS_GRID| Border size                                                         34
 RS_GRID| Real space distribution over                                  4 groups
 RS_GRID| Real space distribution along direction                              2
 RS_GRID| Border size                                                         34
 RS_GRID| Real space distribution over                                  8 groups
 RS_GRID| Real space distribution along direction                              3
 RS_GRID| Border size                                                         34
 RS_GRID|   Distribution                         Average         Max         Min
 RS_GRID|   Planes                                 128.8         129         128
 RS_GRID|   Distribution                         Average         Max         Min
 RS_GRID|   Planes                                 128.8         129         128
 RS_GRID|   Distribution                         Average         Max         Min
 RS_GRID|   Planes                                  98.4          99          98

 RS_GRID| Information for grid number                                          4
 RS_GRID|   Bounds   1            -72      71                Points:         144
 RS_GRID|   Bounds   2            -72      71                Points:         144
 RS_GRID|   Bounds   3            -72      71                Points:         144
 RS_GRID| Real space fully replicated
 RS_GRID| Group size                                                           1

 RS_GRID| Information for grid number                                          5
 RS_GRID|   Bounds   1            -40      40                Points:          81
 RS_GRID|   Bounds   2            -40      40                Points:          81
 RS_GRID|   Bounds   3            -40      40                Points:          81
 RS_GRID| Real space fully replicated
 RS_GRID| Group size                                                           1

 RS_GRID| Information for grid number                                          6
 RS_GRID|   Bounds   1            -24      23                Points:          48
 RS_GRID|   Bounds   2            -24      23                Points:          48
 RS_GRID|   Bounds   3            -24      23                Points:          48
 RS_GRID| Real space fully replicated
 RS_GRID| Group size                                                           1

  HFX_INFO| Replica ID:                                                        1
  HFX_INFO| FRACTION:                                               0.2500000000
  HFX_INFO| Interaction Potential:                                       COULOMB
  HFX_INFO| EPS_SCHWARZ:                                                 1.0E-10
  HFX_INFO| EPS_SCHWARZ_FORCES                                           1.0E-06
  HFX_INFO| EPS_STORAGE_SCALING:                                         1.0E+00
  HFX_INFO| NBINS:                                                            64
  HFX_INFO| BLOCK_SIZE:                                                        1
  HFX_INFO| Number of periodic shells considered:                           NONE
  HFX_INFO| Number of periodic cells considered:                            NONE


 Number of electrons:                                                         18
 Number of occupied orbitals:                                                  9
 Number of molecular orbitals:                                                 9

 Number of orbital functions:                                                 62
 Number of independent orbital functions:                                     62

 Extrapolation method: initial_guess

 Atomic guess: The first density matrix is obtained in terms of atomic orbitals
               and electronic configurations assigned to each atomic kind

 Guess for atomic kind: F

 Electronic structure
    Total number of core electrons                                          0.00
    Total number of valence electrons                                       9.00
    Total number of electrons                                               9.00
    Multiplicity                                                   not specified
    S      2.00  2.00
    P      5.00
 

 *******************************************************************************
                  Iteration          Convergence                     Energy [au]
 *******************************************************************************
                          1         1.40283                     -98.921150941597
                          2         1.51866                     -98.869165684038
                          3        0.106423                     -99.086494189437
                          4        0.331800E-02                 -99.087564993360
                          5        0.177940E-03                 -99.087565939299
                          6        0.360239E-05                 -99.087565942057
                          7        0.383085E-05                 -99.087565942057
                          8        0.128213E-07                 -99.087565942058

 Energy components [Hartree]           Total Energy ::          -99.087565942058
                                        Band Energy ::          -52.578766238002
                                     Kinetic Energy ::           98.719016939034
                                   Potential Energy ::         -197.806582881092
                                      Virial (-V/T) ::            2.003733313139
                                        Core Energy ::         -139.037958686028
                                          XC Energy ::           -9.627291583185
                                     Coulomb Energy ::           49.577684327155

 Orbital energies  State     L     Occupation   Energy[a.u.]          Energy[eV]

                       1     0          2.000     -24.183732         -658.072808
                       2     0          2.000      -1.080297          -29.396387
 
                       1     1          5.000      -0.410142          -11.160520
 

 Total Electron Density at R=0:                                       429.791631
 Re-scaling the density matrix to get the right number of electrons
                  # Electrons              Trace(P)               Scaling factor
                           18                18.000                        1.000


 SCF WAVEFUNCTION OPTIMIZATION

  ----------------------------------- OT ---------------------------------------
  Minimizer      : DIIS                : direct inversion
                                         in the iterative subspace
                                         using   7 DIIS vectors
                                         safer DIIS on
  Preconditioner : FULL_ALL            : diagonalization, state selective
  Precond_solver : DEFAULT
  stepsize       :    0.15000000                  energy_gap     :    0.08000000
  eps_taylor     :   0.10000E-15                  max_taylor     :             4
  ----------------------------------- OT ---------------------------------------

  Step     Update method      Time    Convergence         Total energy    Change
  ------------------------------------------------------------------------------

  HFX_MEM_INFO| Est. max. program size before HFX [MiB]:                     926
  HFX_MEM_INFO| Number of cart. primitive ERI's calculated:             34808196
  HFX_MEM_INFO| Number of sph. ERI's calculated:                         5526540
  HFX_MEM_INFO| Number of sph. ERI's stored in-core:                     5526540
  HFX_MEM_INFO| Number of sph. ERI's stored on disk:                           0
  HFX_MEM_INFO| Number of sph. ERI's calculated on the fly:                    0
  HFX_MEM_INFO| Total memory consumption ERI's RAM [MiB]:                     18
  HFX_MEM_INFO| Whereof max-vals [MiB]:                                        2
  HFX_MEM_INFO| Total compression factor ERI's RAM:                         2.36
  HFX_MEM_INFO| Total memory consumption ERI's disk [MiB]:                     0
  HFX_MEM_INFO| Total compression factor ERI's disk:                        0.00
  HFX_MEM_INFO| Size of density/Fock matrix [MiB]:                             0
  HFX_MEM_INFO| Size of buffers [MiB]:                                         0
  HFX_MEM_INFO| Est. max. program size after HFX  [MiB]:                     922

     1 OT DIIS     0.15E+00   89.8     0.21931916      -196.1245661160 -1.96E+02
     2 OT DIIS     0.15E+00   55.9     0.08117064      -198.8855209511 -2.76E+00
     3 OT DIIS     0.15E+00   51.7     0.01579952      -199.2998289496 -4.14E-01
     4 OT DIIS     0.15E+00   55.2     0.01213501      -199.3153901708 -1.56E-02
     5 OT DIIS     0.15E+00   46.2     0.01055157      -199.3345220533 -1.91E-02
     6 OT DIIS     0.15E+00   48.3     0.00790698      -199.3637257913 -2.92E-02
     7 OT DIIS     0.15E+00   51.8     0.00557011      -199.3830535219 -1.93E-02
     8 OT DIIS     0.15E+00   52.6     0.00438363      -199.3973560019 -1.43E-02
     9 OT DIIS     0.15E+00   51.3     0.00728821      -199.3927745677  4.58E-03
    10 OT DIIS     0.15E+00   51.8     0.00252206      -199.4004596315 -7.69E-03
    11 OT DIIS     0.15E+00   51.8     0.00080631      -199.4009032180 -4.44E-04
    12 OT DIIS     0.15E+00   49.5     0.00054586      -199.4011037110 -2.00E-04
    13 OT DIIS     0.15E+00   51.6     0.00045942      -199.4011605655 -5.69E-05
    14 OT DIIS     0.15E+00   51.3     0.00021899      -199.4011995535 -3.90E-05
    15 OT DIIS     0.15E+00   45.5     0.00008631      -199.4012100296 -1.05E-05
    16 OT DIIS     0.15E+00   50.6     0.00002911      -199.4012114485 -1.42E-06
    17 OT DIIS     0.15E+00   48.6     0.00001119      -199.4012116199 -1.71E-07
    18 OT DIIS     0.15E+00   53.6     0.00000536      -199.4012116560 -3.61E-08
    19 OT DIIS     0.15E+00   51.4     0.00000350      -199.4012116600 -4.02E-09
    20 OT DIIS     0.15E+00   49.8     0.00000221      -199.4012116621 -2.06E-09

  Leaving inner SCF loop after reaching    20 steps.


  Electronic density on regular grids:        -12.5326679183        5.4673320817
  Core density on regular grids:               18.0000000000        0.0000000000
  Hard and soft densities (Lebedev):          -19.2038689061      -13.7365345277
  Total Rho_soft + Rho1_hard - Rho1_soft      -18.0000022967
  Total charge density (r-space):              -0.0000022967
  Total Rho_soft + Rho0_soft (g-space):        -0.0000026074

  Overlap energy of the core charge distribution:               0.00000000000000
  Self energy of the core charge distribution:               -209.12677936959636
  Core Hamiltonian energy:                                     -9.76814949497211
  Hartree energy:                                              26.58238809730473
  Exchange-correlation energy:                                 -5.73783627058850
  Hartree-Fock Exchange energy:                                -4.97783721041560

  GAPW| Exc from hard and soft atomic rho1:                    -9.85298840656309
  GAPW| local Eh = 1 center integrals:                         13.47999099276476

  Total energy:                                              -199.40121166206617

  outer SCF iter =    1 RMS gradient =   0.22E-05 energy =       -199.4012116621

  ----------------------------------- OT ---------------------------------------
  Minimizer      : DIIS                : direct inversion
                                         in the iterative subspace
                                         using   7 DIIS vectors
                                         safer DIIS on
  Preconditioner : FULL_ALL            : diagonalization, state selective
  Precond_solver : DEFAULT
  stepsize       :    0.15000000                  energy_gap     :    0.08000000
  eps_taylor     :   0.10000E-15                  max_taylor     :             4
  ----------------------------------- OT ---------------------------------------

  Step     Update method      Time    Convergence         Total energy    Change
  ------------------------------------------------------------------------------
     1 OT DIIS     0.15E+00  134.7     0.00000375      -199.4012116630 -9.44E-10
     2 OT DIIS     0.15E+00   36.8     0.00000224      -199.4012116639 -9.17E-10
     3 OT DIIS     0.15E+00   37.5     0.00000053      -199.4012116645 -5.28E-10
     4 OT DIIS     0.15E+00   39.6     0.00000033      -199.4012116645 -1.09E-11
     5 OT DIIS     0.15E+00   38.1     0.00000004      -199.4012116645 -4.86E-12

  *** SCF run converged in     5 steps ***


  Electronic density on regular grids:        -12.5326680150        5.4673319850
  Core density on regular grids:               18.0000000000        0.0000000000
  Hard and soft densities (Lebedev):          -19.2038701343      -13.7365358526
  Total Rho_soft + Rho1_hard - Rho1_soft      -18.0000022967
  Total charge density (r-space):              -0.0000022967
  Total Rho_soft + Rho0_soft (g-space):        -0.0000026074

  Overlap energy of the core charge distribution:               0.00000000000000
  Self energy of the core charge distribution:               -209.12677936959636
  Core Hamiltonian energy:                                     -9.76814795547154
  Hartree energy:                                              26.58238692075427
  Exchange-correlation energy:                                 -5.73783631191007
  Hartree-Fock Exchange energy:                                -4.97783721107261

  GAPW| Exc from hard and soft atomic rho1:                    -9.85298843078113
  GAPW| local Eh = 1 center integrals:                         13.47999069360609

  Total energy:                                              -199.40121166447133

  outer SCF iter =    2 RMS gradient =   0.40E-07 energy =       -199.4012116645
  outer SCF loop converged in   2 iterations or   25 steps


 !-----------------------------------------------------------------------------!
                     Mulliken Population Analysis

 #  Atom  Element  Kind  Atomic population                           Net charge
       1     F        1          9.000000                             -0.000000
       2     F        1          9.000000                              0.000000
 # Total charge                             18.000000                  0.000000

 !-----------------------------------------------------------------------------!

 !-----------------------------------------------------------------------------!
                           Hirshfeld Charges

  #Atom  Element  Kind  Ref Charge     Population                    Net charge
      1       F      1       9.000          9.000                         0.000
      2       F      1       9.000          9.000                         0.000

  Total Charge                                                            0.000
 !-----------------------------------------------------------------------------!

 *******************************************************************************
 **                                                                           **
 **         ######## #######   #######   ######## #######  ########           **
 **            ##    ##     ## ##     ## ##       ##   ##     ##              **
 **            ##    ##     ## ##     ## ######   #######     ##              **
 **            ##    ##     ## ##     ## ##       ##          ##              **
 **            ##    #######   #######   ##       ##          ##              **
 **                                                                           **
 *******************************************************************************
 KERNEL|                                                                    FULL
 FUNCTIONAL| PBE:
 FUNCTIONAL| J.P.Perdew, K.Burke, M.Ernzerhof, Phys. Rev. Letter, vol. 77, n 18,
 FUNCTIONAL|  pp. 3865-3868, (1996)sx=0.750sc=1.000{spin unpolarized}           
 KERNEL|                                                          Exact Exchange
 KERNEL| Spin symmetry of excitations                                    Triplet
 TDDFPT| Number of states calculated                                          10
 TDDFPT| Number of Davidson iterations                                        20
 TDDFPT| Davidson iteration convergence                                0.100E-07
 TDDFPT| Max. number of Krylov space vectors                                  60
 TDDFPT| Molecular Orbitals:        Spin       AOs       Occ      Virt     Total
 TDDFPT|                               1        62         9        53        62

 *******************************************************************************
 **                                                                           **
 **                            ####### ####### #######                        **
 **                        #   ##      ##   ## ##                             **
 **                       ###  ######  ##   ## ##                             **
 **                        #       ##  ##   ## ##                             **
 **                            ######  ####### #######                        **
 **                 Based on the xas module from Augustin Bussy               **
 *******************************************************************************
 
 -------------------------------------------------------------------------------
 -                      TDDFPT TRIPLET ENERGIES                                 -
 -------------------------------------------------------------------------------
 
 -------------------------------------------------------------------------------
 -                            TDDFPT Initial Guess                             -
 -------------------------------------------------------------------------------
          State         Occupied      ->      Virtual          Excitation
          number         orbital              orbital          energy (eV)
 -------------------------------------------------------------------------------
             1                9                   10              7.82593
             2                8                   10              7.82593
             3                7                   10             11.35432
             4                6                   10             11.35432
             5                5                   10             12.94065
             6                9                   11             24.12852
             7                8                   11             24.12852
             8                9                   12             25.61495
             9                9                   13             25.61495
            10                8                   12             25.61495

      Number of active states:                                        477
 -------------------------------------------------------------------------------
 
 -------------------------------------------------------------------------------
 -                      TDDFPT WAVEFUNCTION OPTIMIZATION                       -
 -------------------------------------------------------------------------------

          Step            Time         Convergence           Conv. states
 -------------------------------------------------------------------------------

    State    Exc. energy (eV)      Convergence (eV)
        1       2.9780439            -4.8479E+00
        2       2.9780439            -4.8479E+00
        3       6.6650366            -4.6893E+00
        4       6.6650366            -4.6893E+00
        5       7.1765607            -5.7641E+00
        6      21.5501612            -2.5784E+00
        7      21.5501612            -2.5784E+00
        8      22.1377947            -3.4772E+00
        9      22.4611806            -3.1538E+00
       10      22.7227022            -2.8922E+00
 
             1           483.2          2.1183E-01                      0

    State    Exc. energy (eV)      Convergence (eV)
        1       2.9001468            -7.7897E-02
        2       2.9001468            -7.7897E-02
        3       6.5420159            -1.2302E-01
        4       6.5420159            -1.2302E-01
        5       6.9828499            -1.9371E-01
        6      21.3819506            -1.6821E-01
        7      21.3819506            -1.6821E-01
        8      21.7580193            -3.7978E-01
        9      22.2644781            -1.9670E-01
       10      22.5073270            -2.1538E-01
 
             2           462.4          1.3956E-02                      0

    State    Exc. energy (eV)      Convergence (eV)
        1       2.9000743            -7.2416E-05
        2       2.9000744            -7.2416E-05
        3       6.5417285            -2.8733E-04
        4       6.5417285            -2.8733E-04
        5       6.9822239            -6.2598E-04
        6      21.3811734            -7.7726E-04
        7      21.3811734            -7.7726E-04
        8      21.7377343            -2.0285E-02
        9      22.2636273            -8.5085E-04
       10      22.2765830            -2.3074E-01
 
             3           467.0          8.4797E-03                      0

    State    Exc. energy (eV)      Convergence (eV)
        1       2.9000743            -7.8044E-08
        2       2.9000743            -7.8044E-08
        3       6.5417279            -6.2180E-07
        4       6.5417279            -6.2180E-07
        5       6.9822200            -3.9341E-06
        6      21.3811620            -1.1333E-05
        7      21.3811620            -1.1333E-05
        8      21.7371266            -6.0765E-04
        9      22.2635867            -4.0573E-05
       10      22.2636281            -1.2955E-02
 
             4           465.0          4.7608E-04                      2

    State    Exc. energy (eV)      Convergence (eV)
        1       2.9000743            -1.0941E-10
        2       2.9000743            -1.0941E-10
        3       6.5417279            -2.1761E-09
        4       6.5417279            -2.1761E-09
        5       6.9822199            -1.1628E-08
        6      21.3811620            -2.8373E-08
        7      21.3811620            -2.8373E-08
        8      21.7371231            -3.4994E-06
        9      22.2635598            -2.6921E-05
       10      22.2636270            -1.0730E-06
 
             5           464.7          9.8933E-07                      7

    State    Exc. energy (eV)      Convergence (eV)
        1       2.9000743            -7.0240E-14
        2       2.9000743            -6.5331E-14
        3       6.5417279            -5.0852E-12
        4       6.5417279            -5.0845E-12
        5       6.9822199            -7.0346E-12
        6      21.3811620            -5.0150E-11
        7      21.3811620            -5.0144E-11
        8      21.7371231            -8.6380E-09
        9      22.2635597            -7.7677E-08
       10      22.2636270            -1.8198E-09
 
             6           404.8          2.8546E-09                     10
 ------------------------- Restart Davidson iterations -------------------------

    State    Exc. energy (eV)      Convergence (eV)
        1       2.9000743             8.6856E-15
        2       2.9000743             1.3217E-14
        3       6.5417279             6.0421E-15
        4       6.5417279             7.5527E-16
        5       6.9822199             1.6616E-14
        6      21.3811620             2.1147E-14
        7      21.3811620             0.0000E+00
        8      21.7371231             1.2084E-14
        9      22.2635597             2.7190E-14
       10      22.2636270            -6.0421E-15
 
             7           395.4          9.9920E-16                     10
 
 -------------------------------------------------------------------------------
 -  TDDFPT run converged in 7 iteration(s) 
 -------------------------------------------------------------------------------

 R-TDDFPT states of multiplicity 3
 Transition dipoles calculated using length formulation

         State    Excitation        Transition dipole (a.u.)        Oscillator
         number   energy (eV)       x           y           z     strength (a.u.)
         ------------------------------------------------------------------------
 TDDFPT|      1       2.90007   0.0000E+00  0.0000E+00  0.0000E+00   0.00000E+00
 TDDFPT|      2       2.90007   0.0000E+00  0.0000E+00  0.0000E+00   0.00000E+00
 TDDFPT|      3       6.54173   0.0000E+00  0.0000E+00  0.0000E+00   0.00000E+00
 TDDFPT|      4       6.54173   0.0000E+00  0.0000E+00  0.0000E+00   0.00000E+00
 TDDFPT|      5       6.98222   0.0000E+00  0.0000E+00  0.0000E+00   0.00000E+00
 TDDFPT|      6      21.38116   0.0000E+00  0.0000E+00  0.0000E+00   0.00000E+00
 TDDFPT|      7      21.38116   0.0000E+00  0.0000E+00  0.0000E+00   0.00000E+00
 TDDFPT|      8      21.73712   0.0000E+00  0.0000E+00  0.0000E+00   0.00000E+00
 TDDFPT|      9      22.26356   0.0000E+00  0.0000E+00  0.0000E+00   0.00000E+00
 TDDFPT|     10      22.26363   0.0000E+00  0.0000E+00  0.0000E+00   0.00000E+00

 TDDFPT : CheckSum  =  0.184820E+01
 
 -------------------------------------------------------------------------------
 -                            Excitation analysis                              -
 -------------------------------------------------------------------------------
        State             Occupied              Virtual             Excitation
        number             orbital              orbital             amplitude
 -------------------------------------------------------------------------------
             1   2.90007 eV
                                 9                   10               0.997949
                                 9                   11               0.051198
             2   2.90007 eV
                                 8                   10               0.997949
                                 8                   11               0.051198
             3   6.54173 eV
                                 7                   10               0.997366
             4   6.54173 eV
                                 6                   10              -0.997366
             5   6.98222 eV
                                 5                   10              -0.996268
                                 5                   11              -0.070071
             6  21.38116 eV
                                 9                   11               0.989238
                                 7                   14              -0.115778
                                 9                   10              -0.052802
             7  21.38116 eV
                                 8                   11              -0.989238
                                 6                   14               0.115778
                                 8                   10               0.052802
             8  21.73712 eV
                                 9                   13              -0.660183
                                 8                   12              -0.660183
                                 9                   12              -0.203094
                                 8                   13               0.203094
                                 7                   16               0.130115
                                 6                   15               0.130115
                                 5                   11               0.070610
             9  22.26356 eV
                                 9                   12               0.691175
                                 8                   13               0.691174
                                 8                   12              -0.105694
                                 9                   13               0.105694
                                 6                   16              -0.103021
                                 7                   15              -0.103019
            10  22.26363 eV
                                 9                   13              -0.691175
                                 8                   12               0.691175
                                 9                   12               0.105694
                                 8                   13               0.105694
                                 7                   16               0.103015
                                 6                   15              -0.103015
 -------------------------------------------------------------------------------
 
 -------------------------------------------------------------------------------
 -                            Natural Orbital analysis                         -
 -------------------------------------------------------------------------------
   STATE NR.      1             2.90007 eV
     Particle-Hole state: 1   Spin:1     Eigenvalue: 0.99886   Sum Eigv: 0.99886
   STATE NR.      2             2.90007 eV
     Particle-Hole state: 1   Spin:1     Eigenvalue: 0.99886   Sum Eigv: 0.99886
   STATE NR.      3             6.54173 eV
     Particle-Hole state: 1   Spin:1     Eigenvalue: 0.99855   Sum Eigv: 0.99855
   STATE NR.      4             6.54173 eV
     Particle-Hole state: 1   Spin:1     Eigenvalue: 0.99855   Sum Eigv: 0.99855
   STATE NR.      5             6.98222 eV
     Particle-Hole state: 1   Spin:1     Eigenvalue: 0.99906   Sum Eigv: 0.99906
   STATE NR.      6            21.38116 eV
     Particle-Hole state: 1   Spin:1     Eigenvalue: 0.98218   Sum Eigv: 0.98218
   STATE NR.      7            21.38116 eV
     Particle-Hole state: 1   Spin:1     Eigenvalue: 0.98218   Sum Eigv: 0.98218
   STATE NR.      8            21.73712 eV
     Particle-Hole state: 1   Spin:1     Eigenvalue: 0.47738   Sum Eigv: 0.47738
     Particle-Hole state: 2   Spin:1     Eigenvalue: 0.47738   Sum Eigv: 0.95477
     Particle-Hole state: 3   Spin:1     Eigenvalue: 0.01787   Sum Eigv: 0.97264
     Particle-Hole state: 4   Spin:1     Eigenvalue: 0.01787   Sum Eigv: 0.99051
   STATE NR.      9            22.26356 eV
     Particle-Hole state: 1   Spin:1     Eigenvalue: 0.48908   Sum Eigv: 0.48908
     Particle-Hole state: 2   Spin:1     Eigenvalue: 0.48908   Sum Eigv: 0.97816
   STATE NR.     10            22.26363 eV
     Particle-Hole state: 1   Spin:1     Eigenvalue: 0.48908   Sum Eigv: 0.48908
     Particle-Hole state: 2   Spin:1     Eigenvalue: 0.48908   Sum Eigv: 0.97816
 -------------------------------------------------------------------------------
 
                       triplet excitations finished                             
                                                                                
 -------------------------------------------------------------------------------
 -                      TDDFPT SINGLET ENERGIES                                -
 -------------------------------------------------------------------------------
 
 -------------------------------------------------------------------------------
 -                            TDDFPT Initial Guess                             -
 -------------------------------------------------------------------------------
          State         Occupied      ->      Virtual          Excitation
          number         orbital              orbital          energy (eV)
 -------------------------------------------------------------------------------
             1                9                   10              7.82593
             2                8                   10              7.82593
             3                7                   10             11.35432
             4                6                   10             11.35432
             5                5                   10             12.94065
             6                9                   11             24.12852
             7                8                   11             24.12852
             8                9                   12             25.61495
             9                9                   13             25.61495
            10                8                   12             25.61495

      Number of active states:                                        477
 -------------------------------------------------------------------------------
 
 -------------------------------------------------------------------------------
 -                      TDDFPT WAVEFUNCTION OPTIMIZATION                       -
 -------------------------------------------------------------------------------

          Step            Time         Convergence           Conv. states
 -------------------------------------------------------------------------------

    State    Exc. energy (eV)      Convergence (eV)
        1       4.5786304            -3.2473E+00
        2       4.5786304            -3.2473E+00
        3       8.0878097            -3.2665E+00
        4       8.0878097            -3.2665E+00
        5      16.5992714             3.6586E+00
        6      21.8824987            -2.2460E+00
        7      21.8824987            -2.2460E+00
        8      22.9847603            -2.6302E+00
        9      23.0194220            -2.5955E+00
       10      31.3640525             5.7491E+00
 
             1           461.5          2.1128E-01                      0

    State    Exc. energy (eV)      Convergence (eV)
        1       4.5050117            -7.3619E-02
        2       4.5050117            -7.3619E-02
        3       8.0238687            -6.3941E-02
        4       8.0238687            -6.3941E-02
        5      15.5210193            -1.0783E+00
        6      21.8053317            -7.7167E-02
        7      21.8053317            -7.7167E-02
        8      22.9175894            -6.7171E-02
        9      22.9556832            -6.3739E-02
       10      26.1828362            -5.1812E+00
 
             2           457.4          1.9041E-01                      0

    State    Exc. energy (eV)      Convergence (eV)
        1       4.5046162            -3.9546E-04
        2       4.5046162            -3.9546E-04
        3       8.0231213            -7.4738E-04
        4       8.0231213            -7.4738E-04
        5      15.5131990            -7.8203E-03
        6      21.8047537            -5.7793E-04
        7      21.8047538            -5.7793E-04
        8      22.9128212            -4.7682E-03
        9      22.9551554            -5.2780E-04
       10      23.2687646            -2.9141E+00
 
             3           458.3          1.0709E-01                      0

    State    Exc. energy (eV)      Convergence (eV)
        1       4.5046158            -3.9162E-07
        2       4.5046158            -3.9162E-07
        3       8.0231173            -4.0400E-06
        4       8.0231173            -4.0400E-06
        5      15.5131301            -6.8895E-05
        6      21.8047512            -2.5526E-06
        7      21.8047512            -2.5526E-06
        8      22.8853458            -2.7475E-02
        9      22.9551540            -1.3406E-06
       10      22.9559607            -3.1280E-01
 
             4           462.0          1.1495E-02                      0

    State    Exc. energy (eV)      Convergence (eV)
        1       4.5046158            -1.1934E-10
        2       4.5046158            -1.1933E-10
        3       8.0231173            -7.9124E-09
        4       8.0231173            -7.9124E-09
        5      15.5131297            -4.6316E-07
        6      21.8047512            -1.6313E-09
        7      21.8047512            -1.6313E-09
        8      22.8847639            -5.8189E-04
        9      22.9551527            -1.3222E-06
       10      22.9552198            -7.4088E-04
 
             5           479.3          2.7227E-05                      6

    State    Exc. energy (eV)      Convergence (eV)
        1       4.5046158            -1.1405E-13
        2       4.5046158            -1.3897E-13
        3       8.0231173            -1.9169E-12
        4       8.0231173            -1.9607E-12
        5      15.5131297            -3.5040E-10
        6      21.8047512            -1.7459E-11
        7      21.8047512            -1.7416E-11
        8      22.8847622            -1.6955E-06
        9      22.9551527            -4.7922E-08
       10      22.9552177            -2.1181E-06
 
             6           395.8          7.7839E-08                      8
 ------------------------- Restart Davidson iterations -------------------------

    State    Exc. energy (eV)      Convergence (eV)
        1       4.5046158            -6.0421E-15
        2       4.5046158             8.3079E-15
        3       8.0231173             1.8126E-14
        4       8.0231173             5.1358E-14
        5      15.5131297             6.0421E-15
        6      21.8047512            -1.5105E-14
        7      21.8047512             0.0000E+00
        8      22.8847622            -3.0211E-15
        9      22.9551527            -9.0632E-15
       10      22.9552177             2.1147E-14
 
             7           399.4          1.8874E-15                     10
 
 -------------------------------------------------------------------------------
 -  TDDFPT run converged in 7 iteration(s) 
 -------------------------------------------------------------------------------

 R-TDDFPT states of multiplicity 1
 Transition dipoles calculated using length formulation

         State    Excitation        Transition dipole (a.u.)        Oscillator
         number   energy (eV)       x           y           z     strength (a.u.)
         ------------------------------------------------------------------------
 TDDFPT|      1       4.50462  -8.8582E-09  1.0164E-03  5.9149E-04   1.52617E-07
 TDDFPT|      2       4.50462  -3.8926E-08  5.9149E-04 -1.0164E-03   1.52617E-07
 TDDFPT|      3       8.02312  -1.3000E-08  2.8641E-09  2.7362E-09   3.63015E-17
 TDDFPT|      4       8.02312  -9.4264E-08  2.4525E-09 -2.6511E-09   1.74918E-15
 TDDFPT|      5      15.51313   1.7042E+00  1.4389E-08  3.5488E-09   1.10386E+00
 TDDFPT|      6      21.80475   7.8192E-09 -2.4192E-01 -1.4775E-01   4.29281E-02
 TDDFPT|      7      21.80475  -1.7704E-09 -1.4775E-01  2.4192E-01   4.29281E-02
 TDDFPT|      8      22.88476   6.4256E-07 -1.4487E-08  3.2132E-09   2.31613E-13
 TDDFPT|      9      22.95515   1.1197E-07 -1.1256E-09  9.1543E-10   7.05239E-15
 TDDFPT|     10      22.95522   7.3604E-07 -1.5262E-08  7.2013E-09   3.04842E-13

 TDDFPT : CheckSum  =  0.199209E+01
 
 -------------------------------------------------------------------------------
 -                            Excitation analysis                              -
 -------------------------------------------------------------------------------
        State             Occupied              Virtual             Excitation
        number             orbital              orbital             amplitude
 -------------------------------------------------------------------------------
             1   4.50462 eV
                                 9                   10               0.998340
             2   4.50462 eV
                                 8                   10               0.998340
             3   8.02312 eV
                                 7                   10               0.998942
             4   8.02312 eV
                                 6                   10               0.998942
             5  15.51313 eV
                                 5                   10               0.903153
                                 9                   13               0.257163
                                 8                   12               0.257163
                                 5                   11              -0.108552
                                 6                   15              -0.085469
                                 7                   16              -0.085469
                                 9                   12               0.079112
                                 8                   13              -0.079112
                                 4                   17               0.052807
                                 3                   10               0.052662
             6  21.80475 eV
                                 9                   11              -0.994888
                                 7                   14               0.089705
             7  21.80475 eV
                                 8                   11              -0.994888
                                 6                   14               0.089705
             8  22.88476 eV
                                 9                   12               0.672986
                                 8                   13              -0.672986
                                 8                   12              -0.207033
                                 9                   13              -0.207033
                                 7                   15              -0.062899
                                 6                   16               0.062898
             9  22.95515 eV
                                 9                   13               0.696306
                                 8                   12              -0.696306
                                 8                   13              -0.106474
                                 9                   12              -0.106474
                                 7                   16              -0.060523
                                 6                   15               0.060523
            10  22.95522 eV
                                 8                   13              -0.696306
                                 9                   12              -0.696306
                                 8                   12               0.106474
                                 9                   13              -0.106473
                                 7                   15               0.060518
                                 6                   16               0.060518
 -------------------------------------------------------------------------------
 
 -------------------------------------------------------------------------------
 -                            Natural Orbital analysis                         -
 -------------------------------------------------------------------------------
   STATE NR.      1             4.50462 eV
     Particle-Hole state: 1   Spin:1     Eigenvalue: 0.99915   Sum Eigv: 0.99915
   STATE NR.      2             4.50462 eV
[...]
 flops    31 x    32 x    31               984064       0.0%    100.0%      0.0%
 flops    62 x     9 x     9              1275588       0.0%    100.0%      0.0%
 flops    62 x     9 x    31              4151520       0.0%    100.0%      0.0%
 flops    31 x    31 x     9             15879564       0.0%    100.0%      0.0%
 flops     9 x     9 x    31             21112488       0.0%    100.0%      0.0%
 flops    31 x     9 x    31             76145796       0.0%    100.0%      0.0%
 flops inhomo. stacks                           0       0.0%      0.0%      0.0%
 flops total                       120.455794E+06       0.0%    100.0%      0.0%
 flops max/rank                     77.372986E+06       0.0%    100.0%      0.0%
 matmuls inhomo. stacks                         0       0.0%      0.0%      0.0%
 matmuls total                               9982       0.0%    100.0%      0.0%
 number of processed stacks                  6722       0.0%    100.0%      0.0%
 average stack size                                     0.0       1.5       0.0
 marketing flops                   127.948616E+06
 -------------------------------------------------------------------------------
 # multiplications                           1752
 max memory usage/rank               1.520919E+09
 # max total images/rank                        2
 # max 3D layers                                1
 # MPI messages exchanged                 6503424
 MPI messages size (bytes):
  total size                       575.910720E+06
  min size                           0.000000E+00
  max size                          15.376000E+03
  average size                      88.555000E+00
 MPI breakdown and total messages size (bytes):
             size <=      128             6428450                        0
       128 < size <=     8192               44764                111401720
      8192 < size <=    32768               30210                464508960
     32768 < size <=   131072                   0                        0
    131072 < size <=  4194304                   0                        0
   4194304 < size <= 16777216                   0                        0
  16777216 < size                               0                        0
 -------------------------------------------------------------------------------

 *** WARNING in dbcsr_mm.F:291 :: Using a non-square number of MPI ranks ***
 *** might lead to poor performance. Used ranks: 128 Suggested: 121 256  ***

 -------------------------------------------------------------------------------
 -                                                                             -
 -                      DBCSR MESSAGE PASSING PERFORMANCE                      -
 -                                                                             -
 -------------------------------------------------------------------------------
 ROUTINE             CALLS      AVE VOLUME [Bytes]
 MP_Bcast                9                     12.
 MP_Allreduce         7473                      8.
 MP_Alltoall         28626                  37152.
 MP_ISend           109366                    504.
 MP_IRecv           108590                    348.
 -------------------------------------------------------------------------------

 -------------------------------------------------------------------------------
 -                                                                             -
 -                                DBM STATISTICS                               -
 -                                                                             -
 -------------------------------------------------------------------------------
    M  x    N  x    K                                          COUNT     PERCENT
 -------------------------------------------------------------------------------

 -------------------------------------------------------------------------------
 -                                                                             -
 -                                GRID STATISTICS                              -
 -                                                                             -
 -------------------------------------------------------------------------------
 LP    KERNEL             BACKEND                              COUNT     PERCENT
 2     collocate general  CPU                                  24832      19.02%
 2     integrate general  CPU                                  24320      18.62%
 2     collocate ortho    CPU                                  10584       8.11%
 2     integrate ortho    CPU                                  10395       7.96%
 1     collocate ortho    CPU                                   9072       6.95%
 3     collocate ortho    CPU                                   9072       6.95%
 1     integrate ortho    CPU                                   8910       6.82%
 3     integrate ortho    CPU                                   8910       6.82%
 4     collocate ortho    CPU                                   5040       3.86%
 4     integrate ortho    CPU                                   4950       3.79%
 0     collocate ortho    CPU                                   4536       3.47%
 0     integrate ortho    CPU                                   4455       3.41%
 5     collocate ortho    CPU                                   2016       1.54%
 5     integrate ortho    CPU                                   1980       1.52%
 6     collocate ortho    CPU                                    504       0.39%
 6     integrate ortho    CPU                                    495       0.38%
 0     collocate general  CPU                                    256       0.20%
 0     integrate general  CPU                                    256       0.20%
 -------------------------------------------------------------------------------

 MEMORY| Estimated peak process memory [MiB]                                1463

 -------------------------------------------------------------------------------
 ----                             MULTIGRID INFO                            ----
 -------------------------------------------------------------------------------
 count for grid        1:         190869          cutoff [a.u.]          600.00
 count for grid        2:          36639          cutoff [a.u.]          200.00
 count for grid        3:          13494          cutoff [a.u.]           66.67
 count for grid        4:           3209          cutoff [a.u.]           22.22
 count for grid        5:              0          cutoff [a.u.]            7.41
 total gridlevel count  :         244211

 -------------------------------------------------------------------------------
 -                                                                             -
 -                         MESSAGE PASSING PERFORMANCE                         -
 -                                                                             -
 -------------------------------------------------------------------------------

 ROUTINE             CALLS      AVE VOLUME [Bytes]
 MP_Group                6
 MP_Bcast             1019                 184068.
 MP_Allreduce         7537                   8747.
 MP_Sync              1614
 MP_Alltoall          4420               18487878.
 MP_SendRecv         64008                 127152.
 MP_ISendRecv       140589                  65331.
 MP_Wait            180346
 MP_comm_split          81
 MP_ISend            33346                 606454.
 MP_IRecv            35984                 561942.
 -------------------------------------------------------------------------------


 -------------------------------------------------------------------------------
 -                                                                             -
 -                           R E F E R E N C E S                               -
 -                                                                             -
 -------------------------------------------------------------------------------
 
 CP2K version 2024.1 (Development Version), the CP2K developers group (2024).
 CP2K is freely available from https://www.cp2k.org/ .

 Kuehne,Thomas D.; Iannuzzi,Marcella; Del Ben,Mauro;
 Rybkin,Vladimir V.; Seewald,Patrick; Stein,Frederick; Laino,Teodoro;
 Khaliullin,Rustam Z.; Schuett,Ole; Schiffmann,Florian; Golze,Dorothea;
 Wilhelm,Jan; Chulkov,Sergey; Bani-Hashemian,Mohammad Hossein;
 Weber,Valery; Borstnik,Urban; Taillefumier,Mathieu;
 Jakobovits,Alice Shoshana; Lazzaro,Alfio; Pabst,Hans; Mueller,Tiziano;
 Schade,Robert; Guidon,Manuel; Andermatt,Samuel; Holmberg,Nico;
 Schenter,Gregory K.; Hehn,Anna; Bussy,Augustin; Belleflamme,Fabian;
 Tabacchi,Gloria; Gloess,Andreas; Lass,Michael; Bethune,Iain;
 Mundy,Christopher J.; Plessl,Christian; Watkins,Matt;
 VandeVondele,Joost; Krack,Matthias; Hutter,Juerg. 
 The Journal of Chemical Physics, 152 (19), (2020). 
 CP2K: An electronic structure and molecular dynamics software package -
 Quickstep: Efficient and accurate electronic structure calculations.
 https://doi.org/10.1063/5.0007045

 Schuett, Ole; Messmer, Peter; Hutter, Juerg; VandeVondele, Joost. 
 Electronic Structure Calculations on Graphics Processing Units, John
 Wiley & Sons, Ltd, 173-190 (2016). 
 GPU-Accelerated Sparse Matrix-Matrix Multiplication for
 Linear Scaling Density Functional Theory.
 https://doi.org/10.1002/9781118670712.ch8

 Heinecke, A; Henry, G; Hutchinson, M; Pabst, H. 
 Proceedings of Intl. Supercomputing Conference, 981-991 (2016). 
 LIBXSMM: Accelerating Small Matrix Multiplications
 by Runtime Code Generation.
 https://doi.org/10.1109/SC.2016.83

 Borstnik, U; VandeVondele, J; Weber, V; Hutter, J. 
 PARALLEL COMPUTING, 40 (5-6), 47-58 (2014). 
 Sparse matrix multiplication: The distributed block-compressed sparse
 row library.
 https://doi.org/10.1016/j.parco.2014.03.012

 Hutter, J; Iannuzzi, M; Schiffmann, F; VandeVondele, J. 
 WIREs Comput Mol Sci., 4 (1), 15-25 (2014). 
 CP2K: atomistic simulations of condensed matter systems.
 https://doi.org/10.1002/wcms.1159

 Guidon, M; Hutter, J; VandeVondele, J. 
 JOURNAL OF CHEMICAL THEORY AND COMPUTATION, 5 (11), 3010-3021 (2009). 
 Robust Periodic Hartree-Fock Exchange for Large-Scale Simulations Using
 Gaussian Basis Sets.
 https://doi.org/10.1021/ct900494g

 Guidon, M; Schiffmann, F; Hutter, J; VandeVondele, J. 
 JOURNAL OF CHEMICAL PHYSICS, 128 (21), 214104 (2008). 
 Ab initio molecular dynamics using hybrid density functionals.
 https://doi.org/10.1063/1.2931945

 Frigo, M; Johnson, SG. 
 PROCEEDINGS OF THE IEEE, 93 (2), 216-231 (2005). 
 The design and implementation of FFTW3.
 https://doi.org/10.1109/JPROC.2004.840301

 Iannuzzi, M; Chassaing, T; Wallman, T; Hutter, J. 
 CHIMIA, 59 (7-8), 499-503 (2005). 
 Ground and excited state density functional calculations with the
 Gaussian and augmented-plane-wave method.
 https://doi.org/10.2533/000942905777676164

 VandeVondele, J; Hutter, J. 
 JOURNAL OF CHEMICAL PHYSICS, 118 (10), 4365-4369 (2003). 
 An efficient orbital transformation method for electronic structure
 calculations.
 https://doi.org/10.1063/1.1543154

 Martin,Richard L.. 
 The Journal of Chemical Physics, 118 (11), 4775-4777 (2003). 
 Natural transition orbitals.
 https://doi.org/10.1063/1.1558471

 Lippert, G; Hutter, J; Parrinello, M. 
 THEORETICAL CHEMISTRY ACCOUNTS, 103 (2), 124-140 (1999). 
 The Gaussian and augmented-plane-wave density functional method for ab
 initio molecular dynamics simulations.
 https://doi.org/10.1007/s002140050523

 Krack, M; Parrinello, M. 
 PHYSICAL CHEMISTRY CHEMICAL PHYSICS, 2 (10), 2105-2112 (2000). 
 All-electron ab-initio molecular dynamics.
 https://doi.org/10.1039/b001167n

 Martyna, GJ; Tuckerman, ME. 
 JOURNAL OF CHEMICAL PHYSICS, 110 (6), 2810-2821 (1999). 
 A reciprocal space based method for treating long range interactions in
 ab initio and force-field-based calculations in clusters.
 https://doi.org/10.1063/1.477923

 Perdew, JP; Burke, K; Ernzerhof, M. 
 PHYSICAL REVIEW LETTERS, 77 (18), 3865-3868 (1996). 
 Generalized gradient approximation made simple.
 https://doi.org/10.1103/PhysRevLett.77.3865


 -------------------------------------------------------------------------------
 -                                                                             -
 -                                T I M I N G                                  -
 -                                                                             -
 -------------------------------------------------------------------------------
 SUBROUTINE                       CALLS  ASD         SELF TIME        TOTAL TIME
                                MAXIMUM       AVERAGE  MAXIMUM  AVERAGE  MAXIMUM
 CP2K                                 1  1.0    4.426    4.621 8385.369 8385.434
 qs_energies                          1  2.0    0.008    0.071 8322.500 8322.546
 qs_energies_properties               1  3.0    0.000    0.013 6993.742 6993.801
 tddfpt                               1  4.0    0.008    0.036 6993.742 6993.801
 tddfpt_soc_energies                  1  5.0    0.000    0.011 6967.320 6967.370
 tddfpt_energies                      2  6.0    0.001    0.035 6888.613 6888.704
 tddfpt_davidson_solver               4  7.0    0.016    0.072 6339.399 6339.454
 tddfpt_compute_Aop_evects           14  8.0    0.000    0.013 5587.851 5588.031
 fhxc_kernel                         14  9.0    0.022    0.070 3606.802 3607.067
 mp_waitall_1                    340586 14.3 2182.529 2236.014 2182.529 2236.014
 cp_dbcsr_sm_fm_multiply            886  9.5    0.017    0.040 1695.105 1706.939
 tddfpt_apply_hfx                    14  9.0    0.004    0.028 1687.593 1687.708
 qs_rho_update_rho_low              168  9.2    0.006    0.037 1580.001 1580.724
 calculate_rho_elec                 168 10.2    0.693    1.112 1505.746 1507.974
 density_rs2pw                      168 11.2    0.020    0.063 1472.697 1477.259
 integrate_v_rspace                 165  9.8    0.006    0.030 1404.059 1406.960
 dbcsr_complete_redistribute       2874 11.5    0.103    0.275 1370.694 1405.396
 potential_pw2rs                    165 10.8    0.071    0.139 1352.329 1363.923
 scf_env_do_scf                       1  3.0    0.000    0.011 1305.226 1305.258
 transfer_rs2pw                     938 12.1    0.015    0.049 1249.745 1262.185
 transfer_pw2rs                     921 11.8    0.013    0.044 1239.326 1253.616
 scf_env_do_scf_inner_loop           25  4.0    0.008    0.048 1174.225 1174.367
 integrate_four_center              305 10.8    0.089    0.186 1152.591 1155.697
 mp_sendrecv_dv                   64008 14.2 1125.836 1137.645 1125.836 1137.645
 tddft_hfx_matrix                   280 10.0    0.015    0.036 1010.022 1013.211
 copy_dbcsr_to_fm                   962 10.4    0.016    0.074  979.259  992.556
 dbcsr_multiply_generic            1752 10.9    0.093    0.219  899.774  917.620
 pw_transfer                       3690 12.2    0.519    0.703  829.086  852.572
 fft_wrap_pw1pw2                   3403 13.2    0.049    0.105  827.234  850.600
 fft3d_ps                          3403 15.2  102.739  116.391  757.118  781.653
 copy_fm_to_dbcsr                  1908 10.6    0.008    0.046  644.432  679.219
 mp_alltoall_d11v                 11925 12.7  614.020  661.064  614.020  661.064
 fft_wrap_pw1pw2_600               2070 14.4    9.629   10.988  619.076  642.043
 integrate_four_center_getP         305 11.8    0.077    0.716  584.767  585.571
 mp_alltoall_z22v                  3403 17.2  535.156  571.742  535.156  571.742
 integrate_four_center_dist_KS      305 11.8    0.080    0.866  532.328  532.853
 cp_fm_syevd                         81  9.2    0.003    0.024  519.410  520.911
 tddfpt_orthonormalize_psi1_psi      16  7.9    0.006    0.027  498.673  501.572
 mp_alltoall_i11v                  9666 12.5  495.090  495.919  495.090  495.919
 qs_scf_new_mos                      25  5.0    0.000    0.013  494.135  494.423
 qs_scf_loop_do_ot                   25  6.0    0.000    0.013  494.135  494.423
 qs_ks_update_qs_env                 27  5.0    0.000    0.000  485.950  486.572
 rebuild_ks_matrix                   25  6.0    0.005    0.044  482.878  483.474
 qs_ks_build_kohn_sham_matrix        25  7.0    0.019    0.078  482.873  483.474
 ot_scf_mini                         25  7.0    0.000    0.013  478.244  478.480
 transfer_pw2rs_70                  165 12.8    8.110   22.366  441.423  466.477
 tddfpt_print_nto_analysis            2  7.0    0.010    0.059  462.233  462.616
 transfer_rs2pw_70                  168 13.2    5.293   13.304  437.344  452.420
 tddfpt_apply_xc_analytic           140 10.0    2.193    3.197  446.624  449.829
 mp_sum_l                          7244 11.3  411.867  428.452  411.867  428.452
 transfer_pw2rs_30                  165 12.8    0.503    1.079  395.581  420.918
 transfer_rs2pw_30                  168 13.2    0.575    0.837  391.574  420.289
 cp_fm_redistribute_end              81 10.2  232.278  414.427  237.291  418.097
 xc_pw_derive                      1209 11.7    0.036    0.083  382.833  393.421
 cp_dbcsr_sm_fm_multiply_core       886 10.5    0.002    0.015  355.615  371.400
 cp_fm_syevd_base                    81 10.2  177.376  358.876  177.376  358.876
 yz_to_x                           1265 16.7   11.407   13.125  288.028  317.583
 transfer_rs2pw_10                  168 13.2    0.182    1.522  302.968  315.041
 mp_cart_sub                       1932 12.4  302.050  303.407  302.050  303.407
 tddfpt_apply_energy_diff            14  9.0    0.001    0.001  293.456  293.556
 mp_sync                           1614 12.5  229.912  293.543  229.912  293.543
 transfer_pw2rs_10                  165 12.8    0.175    1.897  274.091  286.025
 cp_fm_geeig                         20  8.0    0.006    0.038  279.656  280.019
 cp_dbcsr_plus_fm_fm_t_native       141 10.0    0.004    0.024  277.670  279.240
 dbcsr_desymmetrize_deep            963 11.4    0.024    0.105  254.628  269.284
 multiply_cannon                   1752 11.9    0.136    0.195  240.897  256.960
 ot_mini                             25  8.0    0.007    0.044  256.065  256.481
 x_to_yz                           1472 15.9   20.046   30.199  249.358  255.668
 xc_calc_2nd_deriv_analytical       420 11.0   57.914   87.336  253.860  254.869
 mp_sum_dv                         4519 10.2  247.538  252.686  247.538  252.686
 xc_pw_divergence                   165 11.7    0.015    0.047  217.367  226.678
 cp_fm_trace_a1b1t1_aa             3880  9.0    0.010    0.023  220.817  223.745
 mp_alltoall_i22                   3864 12.5  192.330  222.095  192.330  222.095
 sum_up_and_integrate                25  8.0    0.001    0.022  216.737  217.172
 qs_ot_get_derivative                25  9.0    0.003    0.035  210.086  210.328
 make_m2s                          3504 11.9    0.045    0.066  179.527  192.519
 make_images                       3504 12.9    0.083    0.150  179.423  192.376
 make_images_sizes                 3504 13.9    0.004    0.017  179.009  189.013
 mp_alltoall_i44                   3504 14.9  179.005  189.010  179.005  189.010
 tddfpt_compute_residual_vects       10  8.0    0.001    0.001  183.359  183.655
 qs_ot_get_p                         27  7.9    0.003    0.035  180.354  180.525
 -------------------------------------------------------------------------------

 The number of warnings for this run is : 1
 
 -------------------------------------------------------------------------------
  **** **** ******  **  PROGRAM ENDED AT                 2024-02-05 15:56:47.852
 ***** ** ***  *** **   PROGRAM RAN ON                               nesh-clk577
 **    ****   ******    PROGRAM RAN BY                                  suphc355
 ***** **    ** ** **   PROGRAM PROCESS ID                                290830
  **** **  *******  **  PROGRAM STOPPED IN /gxfs_work/cau/suphc355/homologes/X2/
                                           AE/F
