 DBCSR| CPU Multiplication driver                                           XSMM (U)
 DBCSR| Multrec recursion limit                                              512 (U)
 DBCSR| Multiplication stack size                                           1000 (D)
 DBCSR| Maximum elements for images                                    UNLIMITED (U)
 DBCSR| Multiplicative factor virtual images                                   1 (U)
 DBCSR| Use multiplication densification                                       T (D)
 DBCSR| Multiplication size stacks                                             3 (U)
 DBCSR| Use memory pool for CPU allocation                                     F (U)
 DBCSR| Number of 3D layers                                               SINGLE (U)
 DBCSR| Use MPI memory allocation                                              F (U)
 DBCSR| Use RMA algorithm                                                      F (U)
 DBCSR| Use Communication thread                                               T (U)
 DBCSR| Communication thread load                                             83 (D)
 DBCSR| MPI: My process id                                                     0
 DBCSR| MPI: Number of processes                                             128
 DBCSR| OMP: Current number of threads                                         2
 DBCSR| OMP: Max number of threads                                             2
 DBCSR| Split modifier for TAS multiplication algorithm                  1.0E+00 (U)


  **** **** ******  **  PROGRAM STARTED AT               2024-01-12 14:51:04.152
 ***** ** ***  *** **   PROGRAM STARTED ON                           nesh-srp245
 **    ****   ******    PROGRAM STARTED BY                              suphc355
 ***** **    ** ** **   PROGRAM PROCESS ID                               2635347
  **** **  *******  **  PROGRAM STARTED IN /gxfs_work/cau/suphc355/homologes/X2/
                                           AE/F

 CP2K| version string:                 CP2K version 2024.1 (Development Version)
 CP2K| source code revision number:                                  git:15182a3
 CP2K| cp2kflags: omp libint fftw3 libxc libgrpp parallel mpi_f08 scalapack cosm
 CP2K|            a xsmm spglib mkl
 CP2K| is freely available from                            https://www.cp2k.org/
 CP2K| Program compiled at                           Di 9. Jan 09:05:01 CET 2024
 CP2K| Program compiled on                                           nesh-login2
 CP2K| Program compiled for                                                local
 CP2K| Data directory path            /gxfs_home/cau/suphc355/software/cp2k/data
 CP2K| Input file name                                                AE_aug.inp
 
 GLOBAL| Force Environment number                                              1
 GLOBAL| Basis set file name                                  ../../../basis_aug
 GLOBAL| Potential file name                                           POTENTIAL
 GLOBAL| MM Potential file name                                     MM_POTENTIAL
 GLOBAL| Coordinate file name                                            opt.xyz
 GLOBAL| Method name                                                        CP2K
 GLOBAL| Project name                                                  F2_AE_aug
 GLOBAL| Run type                                                         ENERGY
 GLOBAL| FFT library                                                       FFTW3
 GLOBAL| Diagonalization library                                       ScaLAPACK
 GLOBAL| DGEMM library                                                      BLAS
 GLOBAL| Orthonormality check for eigenvectors                          DISABLED
 GLOBAL| Matrix multiplication library                                     COSMA
 GLOBAL| All-to-all communication in single precision                          F
 GLOBAL| FFTs using library dependent lengths                                  F
 GLOBAL| Grid backend                                                       AUTO
 GLOBAL| Global print level                                               MEDIUM
 GLOBAL| MPI I/O enabled                                                       T
 GLOBAL| Total number of message passing processes                           128
 GLOBAL| Number of threads for this process                                    2
 GLOBAL| This output is from process                                           0
 GLOBAL| Stack size for threads created by OpenMP (OMP_STACKSIZE)        default
 GLOBAL| CPU model name                              Intel(R) Xeon(R) Gold 6426Y
 GLOBAL| CPUID                                                              1003

 MEMORY| system memory details [Kb]
 MEMORY|                        rank 0           min           max       average
 MEMORY| MemTotal            263786136     263786136     263786136     263786136
 MEMORY| MemFree             244511232     244482388     244538320     244503578
 MEMORY| Buffers                553784        551840        554088        552944
 MEMORY| Cached                 446196        440676        465776        448559
 MEMORY| Slab                   462772        460416        468228        463495
 MEMORY| SReclaimable            82320         80568         82320         81618
 MEMORY| MemLikelyFree       245593532     245557112     245612412     245586700


 *** Fundamental physical constants (SI units) ***

 *** Literature: B. J. Mohr and B. N. Taylor,
 ***             CODATA recommended values of the fundamental physical
 ***             constants: 2006, Web Version 5.1
 ***             http://physics.nist.gov/constants

 Speed of light in vacuum [m/s]                             2.99792458000000E+08
 Magnetic constant or permeability of vacuum [N/A**2]       1.25663706143592E-06
 Electric constant or permittivity of vacuum [F/m]          8.85418781762039E-12
 Planck constant (h) [J*s]                                  6.62606896000000E-34
 Planck constant (h-bar) [J*s]                              1.05457162825177E-34
 Elementary charge [C]                                      1.60217648700000E-19
 Electron mass [kg]                                         9.10938215000000E-31
 Electron g factor [ ]                                     -2.00231930436220E+00
 Proton mass [kg]                                           1.67262163700000E-27
 Fine-structure constant                                    7.29735253760000E-03
 Rydberg constant [1/m]                                     1.09737315685270E+07
 Avogadro constant [1/mol]                                  6.02214179000000E+23
 Boltzmann constant [J/K]                                   1.38065040000000E-23
 Atomic mass unit [kg]                                      1.66053878200000E-27
 Bohr radius [m]                                            5.29177208590000E-11

 *** Conversion factors ***

 [u] -> [a.u.]                                              1.82288848426455E+03
 [Angstrom] -> [Bohr] = [a.u.]                              1.88972613288564E+00
 [a.u.] = [Bohr] -> [Angstrom]                              5.29177208590000E-01
 [a.u.] -> [s]                                              2.41888432650478E-17
 [a.u.] -> [fs]                                             2.41888432650478E-02
 [a.u.] -> [J]                                              4.35974393937059E-18
 [a.u.] -> [N]                                              8.23872205491840E-08
 [a.u.] -> [K]                                              3.15774647902944E+05
 [a.u.] -> [kJ/mol]                                         2.62549961709828E+03
 [a.u.] -> [kcal/mol]                                       6.27509468713739E+02
 [a.u.] -> [Pa]                                             2.94210107994716E+13
 [a.u.] -> [bar]                                            2.94210107994716E+08
 [a.u.] -> [atm]                                            2.90362800883016E+08
 [a.u.] -> [eV]                                             2.72113838565563E+01
 [a.u.] -> [Hz]                                             6.57968392072181E+15
 [a.u.] -> [1/cm] (wave numbers)                            2.19474631370540E+05
 [a.u./Bohr**2] -> [1/cm]                                   5.14048714338585E+03
 

 CELL_TOP| Volume [angstrom^3]:                                       512.000000
 CELL_TOP| Vector a [angstrom     8.000     0.000     0.000   |a| =     8.000000
 CELL_TOP| Vector b [angstrom     0.000     8.000     0.000   |b| =     8.000000
 CELL_TOP| Vector c [angstrom     0.000     0.000     8.000   |c| =     8.000000
 CELL_TOP| Angle (b,c), alpha [degree]:                                90.000000
 CELL_TOP| Angle (a,c), beta  [degree]:                                90.000000
 CELL_TOP| Angle (a,b), gamma [degree]:                                90.000000
 CELL_TOP| Numerically orthorhombic:                                         YES
 CELL_TOP| Periodicity                                                      NONE
 
 GENERATE|  Preliminary Number of Bonds generated:                             0
 GENERATE|  Achieved consistency in connectivity generation.

 CELL| Volume [angstrom^3]:                                           512.000000
 CELL| Vector a [angstrom]:       8.000     0.000     0.000   |a| =     8.000000
 CELL| Vector b [angstrom]:       0.000     8.000     0.000   |b| =     8.000000
 CELL| Vector c [angstrom]:       0.000     0.000     8.000   |c| =     8.000000
 CELL| Angle (b,c), alpha [degree]:                                    90.000000
 CELL| Angle (a,c), beta  [degree]:                                    90.000000
 CELL| Angle (a,b), gamma [degree]:                                    90.000000
 CELL| Numerically orthorhombic:                                             YES
 CELL| Periodicity                                                          NONE

 CELL_REF| Volume [angstrom^3]:                                       512.000000
 CELL_REF| Vector a [angstrom     8.000     0.000     0.000   |a| =     8.000000
 CELL_REF| Vector b [angstrom     0.000     8.000     0.000   |b| =     8.000000
 CELL_REF| Vector c [angstrom     0.000     0.000     8.000   |c| =     8.000000
 CELL_REF| Angle (b,c), alpha [degree]:                                90.000000
 CELL_REF| Angle (a,c), beta  [degree]:                                90.000000
 CELL_REF| Angle (a,b), gamma [degree]:                                90.000000
 CELL_REF| Numerically orthorhombic:                                         YES
 CELL_REF| Periodicity                                                      NONE

 *******************************************************************************
 *******************************************************************************
 **                                                                           **
 **     #####                         ##              ##                      **
 **    ##   ##            ##          ##              ##                      **
 **   ##     ##                       ##            ######                    **
 **   ##     ##  ##   ##  ##   #####  ##  ##   ####   ##    #####    #####    **
 **   ##     ##  ##   ##  ##  ##      ## ##   ##      ##   ##   ##  ##   ##   **
 **   ##  ## ##  ##   ##  ##  ##      ####     ###    ##   ######   ######    **
 **    ##  ###   ##   ##  ##  ##      ## ##      ##   ##   ##       ##        **
 **     #######   #####   ##   #####  ##  ##  ####    ##    #####   ##        **
 **           ##                                                    ##        **
 **                                                                           **
 **                                                ... make the atoms dance   **
 **                                                                           **
 **            Copyright (C) by CP2K developers group (2000-2024)             **
 **                      J. Chem. Phys. 152, 194103 (2020)                    **
 **                                                                           **
 *******************************************************************************

 DFT| Spin restricted Kohn-Sham (RKS) calculation                            RKS
 DFT| Multiplicity                                                             1
 DFT| Number of spin states                                                    1
 DFT| Charge                                                                   0
 DFT| Self-interaction correction (SIC)                                       NO
 DFT| Cutoffs: density                                              1.000000E-10
 DFT|          gradient                                             1.000000E-10
 DFT|          tau                                                  1.000000E-10
 DFT|          cutoff_smoothing_range                               0.000000E+00
 DFT| XC density smoothing                                                  NONE
 DFT| XC derivatives                                                          PW

 FUNCTIONAL| PBE:
 FUNCTIONAL| J.P.Perdew, K.Burke, M.Ernzerhof, Phys. Rev. Letter, vol. 77, n 18,
 FUNCTIONAL|  pp. 3865-3868, (1996) {spin unpolarized}                          


 QS| Method:                                                                GAPW
 QS| Density plane wave grid type                        NON-SPHERICAL FULLSPACE
 QS| Number of grid levels:                                                    5
 QS| Density cutoff [a.u.]:                                                600.0
 QS| Multi grid cutoff [a.u.]: 1) grid level                               600.0
 QS|                           2) grid level                               200.0
 QS|                           3) grid level                                66.7
 QS|                           4) grid level                                22.2
 QS|                           5) grid level                                 7.4
 QS| Grid level progression factor:                                          3.0
 QS| Relative density cutoff [a.u.]:                                        40.0
 QS| Interaction thresholds: eps_pgf_orb:                                1.0E-30
 QS|                         eps_filter_matrix:                          0.0E+00
 QS|                         eps_core_charge:                            1.0E-17
 QS|                         eps_rho_gspace:                             1.0E-15
 QS|                         eps_rho_rspace:                             1.0E-15
 QS|                         eps_gvg_rspace:                             3.2E-08
 QS|                         eps_ppl:                                    1.0E-02
 QS|                         eps_ppnl:                                   3.2E-10
 QS| GAPW|      One center basis from orbital basis primitives
 QS| GAPW|                   eps_fit:                                    1.0E-04
 QS| GAPW|                   eps_iso:                                    1.0E-12
 QS| GAPW|                   eps_svd:                                    1.0E-08
 QS| GAPW|                   eps_cpc:                                    1.0E-15
 QS| GAPW|   atom-r-grid: quadrature:                                     GC_LOG
 QS| GAPW|      atom-s-grid:  max l :                                          8
 QS| GAPW|      max_l_rho0 :                                                   2


 ATOMIC KIND INFORMATION

  1. Atomic kind: F                                     Number of atoms:       2

     Orbital Basis Set                                               aug-cc-pVQZ

       Number of orbital shell sets:                                          10
       Number of orbital shells:                                              20
       Number of primitive Cartesian functions:                               29
       Number of Cartesian basis functions:                                  105
       Number of spherical basis functions:                                   80
       Norm type:                                                              2

       Normalised Cartesian orbitals:

                        Set   Shell   Orbital            Exponent    Coefficient

                          1       1    1s            74530.000000       0.305409
                                                     11170.000000       0.571488
                                                      2543.000000       0.984652
                                                       721.000000       1.579315
                                                       235.900000       2.328994
                                                        85.600000       2.998782
                                                        33.550000       3.062569
                                                        13.930000       2.029128
                                                         5.915000       0.570457
                                                         1.843000       0.019335
                                                         0.712400      -0.001114
                                                         0.263700       0.000228

                          1       2    2s            74530.000000       0.000000
                                                     11170.000000       0.000000
                                                      2543.000000       0.000000
                                                       721.000000       0.000000
                                                       235.900000       0.000000
                                                        85.600000       0.000000
                                                        33.550000       0.000000
                                                        13.930000       0.000000
                                                         5.915000       0.000000
                                                         1.843000       1.127338
                                                         0.712400       0.000000
                                                         0.263700       0.000000

                          1       3    3s            74530.000000       0.000000
                                                     11170.000000       0.000000
                                                      2543.000000       0.000000
                                                       721.000000       0.000000
                                                       235.900000       0.000000
                                                        85.600000       0.000000
                                                        33.550000       0.000000
                                                        13.930000       0.000000
                                                         5.915000       0.000000
                                                         1.843000       0.000000
                                                         0.712400       0.552654
                                                         0.263700       0.000000

                          1       4    4s            74530.000000      -0.070726
                                                     11170.000000      -0.133192
                                                      2543.000000      -0.227404
                                                       721.000000      -0.371673
                                                       235.900000      -0.551778
                                                        85.600000      -0.763388
                                                        33.550000      -0.856807
                                                        13.930000      -0.800980
                                                         5.915000      -0.299821
                                                         1.843000       0.336804
                                                         0.712400       0.323309
                                                         0.263700       0.071116

                          1       5    5s            74530.000000       0.000000
                                                     11170.000000       0.000000
                                                      2543.000000       0.000000
                                                       721.000000       0.000000
                                                       235.900000       0.000000
                                                        85.600000       0.000000
                                                        33.550000       0.000000
                                                        13.930000       0.000000
                                                         5.915000       0.000000
                                                         1.843000       0.000000
                                                         0.712400       0.000000
                                                         0.263700       0.262266

                          2       1    1s                0.085940       0.113124

                          3       1    1px              80.390000       0.000000
                                                        18.630000       0.000000
                                                         5.694000       0.000000
                                                         1.953000       3.290924
                                                         0.670200       0.000000
                                                         0.216600       0.000000
                          3       1    1py              80.390000       0.000000
                                                        18.630000       0.000000
                                                         5.694000       0.000000
                                                         1.953000       3.290924
                                                         0.670200       0.000000
                                                         0.216600       0.000000
                          3       1    1pz              80.390000       0.000000
                                                        18.630000       0.000000
                                                         5.694000       0.000000
                                                         1.953000       3.290924
                                                         0.670200       0.000000
                                                         0.216600       0.000000

                          3       2    2px              80.390000       2.177765
                                                        18.630000       2.438752
                                                         5.694000       2.112749
                                                         1.953000       1.189876
                                                         0.670200       0.382202
                                                         0.216600       0.051274
                          3       2    2py              80.390000       2.177765
                                                        18.630000       2.438752
                                                         5.694000       2.112749
                                                         1.953000       1.189876
                                                         0.670200       0.382202
                                                         0.216600       0.051274
                          3       2    2pz              80.390000       2.177765
                                                        18.630000       2.438752
                                                         5.694000       2.112749
                                                         1.953000       1.189876
                                                         0.670200       0.382202
                                                         0.216600       0.051274

                          3       3    3px              80.390000       0.000000
                                                        18.630000       0.000000
                                                         5.694000       0.000000
                                                         1.953000       0.000000
                                                         0.670200       0.864362
                                                         0.216600       0.000000
                          3       3    3py              80.390000       0.000000
                                                        18.630000       0.000000
                                                         5.694000       0.000000
                                                         1.953000       0.000000
                                                         0.670200       0.864362
                                                         0.216600       0.000000
                          3       3    3pz              80.390000       0.000000
                                                        18.630000       0.000000
                                                         5.694000       0.000000
                                                         1.953000       0.000000
                                                         0.670200       0.864362
                                                         0.216600       0.000000

                          3       4    4px              80.390000       0.000000
                                                        18.630000       0.000000
                                                         5.694000       0.000000
                                                         1.953000       0.000000
                                                         0.670200       0.000000
                                                         0.216600       0.210627
                          3       4    4py              80.390000       0.000000
                                                        18.630000       0.000000
                                                         5.694000       0.000000
                                                         1.953000       0.000000
                                                         0.670200       0.000000
                                                         0.216600       0.210627
                          3       4    4pz              80.390000       0.000000
                                                        18.630000       0.000000
                                                         5.694000       0.000000
                                                         1.953000       0.000000
                                                         0.670200       0.000000
                                                         0.216600       0.210627

                          4       1    1px               0.065680       0.047395
                          4       1    1py               0.065680       0.047395
                          4       1    1pz               0.065680       0.047395

                          5       1    1dx2              5.014000      27.652349
                                                         1.725000       0.000000
                                                         0.586000       0.000000
                          5       1    1dxy              5.014000      47.895274
                                                         1.725000       0.000000
                                                         0.586000       0.000000
                          5       1    1dxz              5.014000      47.895274
                                                         1.725000       0.000000
                                                         0.586000       0.000000
                          5       1    1dy2              5.014000      27.652349
                                                         1.725000       0.000000
                                                         0.586000       0.000000
                          5       1    1dyz              5.014000      47.895274
                                                         1.725000       0.000000
                                                         0.586000       0.000000
                          5       1    1dz2              5.014000      27.652349
                                                         1.725000       0.000000
                                                         0.586000       0.000000

                          5       2    2dx2              5.014000       0.000000
                                                         1.725000       4.273566
                                                         0.586000       0.000000
                          5       2    2dxy              5.014000       0.000000
                                                         1.725000       7.402033
                                                         0.586000       0.000000
                          5       2    2dxz              5.014000       0.000000
                                                         1.725000       7.402033
                                                         0.586000       0.000000
                          5       2    2dy2              5.014000       0.000000
                                                         1.725000       4.273566
                                                         0.586000       0.000000
                          5       2    2dyz              5.014000       0.000000
                                                         1.725000       7.402033
                                                         0.586000       0.000000
                          5       2    2dz2              5.014000       0.000000
                                                         1.725000       4.273566
                                                         0.586000       0.000000

                          5       3    3dx2              5.014000       0.000000
                                                         1.725000       0.000000
                                                         0.586000       0.645997
                          5       3    3dxy              5.014000       0.000000
                                                         1.725000       0.000000
                                                         0.586000       1.118899
                          5       3    3dxz              5.014000       0.000000
                                                         1.725000       0.000000
                                                         0.586000       1.118899
                          5       3    3dy2              5.014000       0.000000
                                                         1.725000       0.000000
                                                         0.586000       0.645997
                          5       3    3dyz              5.014000       0.000000
                                                         1.725000       0.000000
                                                         0.586000       1.118899
                          5       3    3dz2              5.014000       0.000000
                                                         1.725000       0.000000
                                                         0.586000       0.645997

                          6       1    1dx2              0.207000       0.104558
                          6       1    1dxy              0.207000       0.181100
                          6       1    1dxz              0.207000       0.181100
                          6       1    1dy2              0.207000       0.104558
                          6       1    1dyz              0.207000       0.181100
                          6       1    1dz2              0.207000       0.104558

                          7       1    1fx3              3.562000      25.660538
                                                         1.148000       0.000000
                          7       1    1fx2y             3.562000      57.378707
                                                         1.148000       0.000000
                          7       1    1fx2z             3.562000      57.378707
                                                         1.148000       0.000000
                          7       1    1fxy2             3.562000      57.378707
                                                         1.148000       0.000000
                          7       1    1fxyz             3.562000      99.382837
                                                         1.148000       0.000000
                          7       1    1fxz2             3.562000      57.378707
                                                         1.148000       0.000000
                          7       1    1fy3              3.562000      25.660538
                                                         1.148000       0.000000
                          7       1    1fy2z             3.562000      57.378707
                                                         1.148000       0.000000
                          7       1    1fyz2             3.562000      57.378707
                                                         1.148000       0.000000
                          7       1    1fz3              3.562000      25.660538
                                                         1.148000       0.000000

                          7       2    2fx3              3.562000       0.000000
                                                         1.148000       2.008277
                          7       2    2fx2y             3.562000       0.000000
                                                         1.148000       4.490645
                          7       2    2fx2z             3.562000       0.000000
                                                         1.148000       4.490645
                          7       2    2fxy2             3.562000       0.000000
                                                         1.148000       4.490645
                          7       2    2fxyz             3.562000       0.000000
                                                         1.148000       7.778025
                          7       2    2fxz2             3.562000       0.000000
                                                         1.148000       4.490645
                          7       2    2fy3              3.562000       0.000000
                                                         1.148000       2.008277
                          7       2    2fy2z             3.562000       0.000000
                                                         1.148000       4.490645
                          7       2    2fyz2             3.562000       0.000000
                                                         1.148000       4.490645
                          7       2    2fz3              3.562000       0.000000
                                                         1.148000       2.008277

                          8       1    1fx3              0.460000       0.256543
                          8       1    1fx2y             0.460000       0.573647
                          8       1    1fx2z             0.460000       0.573647
                          8       1    1fxy2             0.460000       0.573647
                          8       1    1fxyz             0.460000       0.993585
                          8       1    1fxz2             0.460000       0.573647
                          8       1    1fy3              0.460000       0.256543
                          8       1    1fy2z             0.460000       0.573647
                          8       1    1fyz2             0.460000       0.573647
                          8       1    1fz3              0.460000       0.256543

                          9       1    1gx4              2.376000      12.023008
                          9       1    1gx3y             2.376000      31.809888
                          9       1    1gx3z             2.376000      31.809888
                          9       1    1gx2y2            2.376000      41.066389
                          9       1    1gx2yz            2.376000      71.129073
                          9       1    1gx2z2            2.376000      41.066389
                          9       1    1gxy3             2.376000      31.809888
                          9       1    1gxy2z            2.376000      71.129073
                          9       1    1gxyz2            2.376000      71.129073
                          9       1    1gxz3             2.376000      31.809888
                          9       1    1gy4              2.376000      12.023008
                          9       1    1gy3z             2.376000      31.809888
                          9       1    1gy2z2            2.376000      41.066389
                          9       1    1gyz3             2.376000      31.809888
                          9       1    1gz4              2.376000      12.023008

                         10       1    1gx4              0.924000       0.895434
                         10       1    1gx3y             0.924000       2.369094
                         10       1    1gx3z             0.924000       2.369094
                         10       1    1gx2y2            0.924000       3.058488
                         10       1    1gx2yz            0.924000       5.297456
                         10       1    1gx2z2            0.924000       3.058488
                         10       1    1gxy3             0.924000       2.369094
                         10       1    1gxy2z            0.924000       5.297456
                         10       1    1gxyz2            0.924000       5.297456
                         10       1    1gxz3             0.924000       2.369094
                         10       1    1gy4              0.924000       0.895434
                         10       1    1gy3z             0.924000       2.369094
                         10       1    1gy2z2            0.924000       3.058488
                         10       1    1gyz3             0.924000       2.369094
                         10       1    1gz4              0.924000       0.895434

       Atomic covalent radius [Angstrom]:                                  0.720

       Atomic van der Waals radius [Angstrom]:                             1.470

     The atoms of this atomic kind are PAW atoms (GAPW):
       Hard Gaussian function radius:                                      1.512
       Rho0 radius:                                                        1.512
       Maximum GTO radius used for PAW projector construction:            24.566

     GAPW Soft Basis Set                                        aug-cc-pVQZ_soft

       Number of orbital shell sets:                                          10
       Number of orbital shells:                                              20
       Number of primitive Cartesian functions:                               16
       Number of Cartesian basis functions:                                  105
       Number of spherical basis functions:                                   80
       Norm type:                                                              2

       Normalised Cartesian orbitals:

                        Set   Shell   Orbital            Exponent    Coefficient

                          1       1    1s                1.843000       0.019335
                                                         0.712400      -0.001114
                                                         0.263700       0.000228

                          1       2    2s                1.843000       1.127338
                                                         0.712400       0.000000
                                                         0.263700       0.000000

                          1       3    3s                1.843000       0.000000
                                                         0.712400       0.552654
                                                         0.263700       0.000000

                          1       4    4s                1.843000       0.336804
                                                         0.712400       0.323309
                                                         0.263700       0.071116

                          1       5    5s                1.843000       0.000000
                                                         0.712400       0.000000
                                                         0.263700       0.262266

                          2       1    1s                0.085940       0.113124

                          3       1    1px               1.953000       3.290924
                                                         0.670200       0.000000
                                                         0.216600       0.000000
                          3       1    1py               1.953000       3.290924
                                                         0.670200       0.000000
                                                         0.216600       0.000000
                          3       1    1pz               1.953000       3.290924
                                                         0.670200       0.000000
                                                         0.216600       0.000000

                          3       2    2px               1.953000       1.189876
                                                         0.670200       0.382202
                                                         0.216600       0.051274
                          3       2    2py               1.953000       1.189876
                                                         0.670200       0.382202
                                                         0.216600       0.051274
                          3       2    2pz               1.953000       1.189876
                                                         0.670200       0.382202
                                                         0.216600       0.051274

                          3       3    3px               1.953000       0.000000
                                                         0.670200       0.864362
                                                         0.216600       0.000000
                          3       3    3py               1.953000       0.000000
                                                         0.670200       0.864362
                                                         0.216600       0.000000
                          3       3    3pz               1.953000       0.000000
                                                         0.670200       0.864362
                                                         0.216600       0.000000

                          3       4    4px               1.953000       0.000000
                                                         0.670200       0.000000
                                                         0.216600       0.210627
                          3       4    4py               1.953000       0.000000
                                                         0.670200       0.000000
                                                         0.216600       0.210627
                          3       4    4pz               1.953000       0.000000
                                                         0.670200       0.000000
                                                         0.216600       0.210627

                          4       1    1px               0.065680       0.047395
                          4       1    1py               0.065680       0.047395
                          4       1    1pz               0.065680       0.047395

                          5       1    1dx2              1.725000       0.000000
                                                         0.586000       0.000000
                          5       1    1dxy              1.725000       0.000000
                                                         0.586000       0.000000
                          5       1    1dxz              1.725000       0.000000
                                                         0.586000       0.000000
                          5       1    1dy2              1.725000       0.000000
                                                         0.586000       0.000000
                          5       1    1dyz              1.725000       0.000000
                                                         0.586000       0.000000
                          5       1    1dz2              1.725000       0.000000
                                                         0.586000       0.000000

                          5       2    2dx2              1.725000       4.273566
                                                         0.586000       0.000000
                          5       2    2dxy              1.725000       7.402033
                                                         0.586000       0.000000
                          5       2    2dxz              1.725000       7.402033
                                                         0.586000       0.000000
                          5       2    2dy2              1.725000       4.273566
                                                         0.586000       0.000000
                          5       2    2dyz              1.725000       7.402033
                                                         0.586000       0.000000
                          5       2    2dz2              1.725000       4.273566
                                                         0.586000       0.000000

                          5       3    3dx2              1.725000       0.000000
                                                         0.586000       0.645997
                          5       3    3dxy              1.725000       0.000000
                                                         0.586000       1.118899
                          5       3    3dxz              1.725000       0.000000
                                                         0.586000       1.118899
                          5       3    3dy2              1.725000       0.000000
                                                         0.586000       0.645997
                          5       3    3dyz              1.725000       0.000000
                                                         0.586000       1.118899
                          5       3    3dz2              1.725000       0.000000
                                                         0.586000       0.645997

                          6       1    1dx2              0.207000       0.104558
                          6       1    1dxy              0.207000       0.181100
                          6       1    1dxz              0.207000       0.181100
                          6       1    1dy2              0.207000       0.104558
                          6       1    1dyz              0.207000       0.181100
                          6       1    1dz2              0.207000       0.104558

                          7       1    1fx3              3.562000      25.660538
                                                         1.148000       0.000000
                          7       1    1fx2y             3.562000      57.378707
                                                         1.148000       0.000000
                          7       1    1fx2z             3.562000      57.378707
                                                         1.148000       0.000000
                          7       1    1fxy2             3.562000      57.378707
                                                         1.148000       0.000000
                          7       1    1fxyz             3.562000      99.382837
                                                         1.148000       0.000000
                          7       1    1fxz2             3.562000      57.378707
                                                         1.148000       0.000000
                          7       1    1fy3              3.562000      25.660538
                                                         1.148000       0.000000
                          7       1    1fy2z             3.562000      57.378707
                                                         1.148000       0.000000
                          7       1    1fyz2             3.562000      57.378707
                                                         1.148000       0.000000
                          7       1    1fz3              3.562000      25.660538
                                                         1.148000       0.000000

                          7       2    2fx3              3.562000       0.000000
                                                         1.148000       2.008277
                          7       2    2fx2y             3.562000       0.000000
                                                         1.148000       4.490645
                          7       2    2fx2z             3.562000       0.000000
                                                         1.148000       4.490645
                          7       2    2fxy2             3.562000       0.000000
                                                         1.148000       4.490645
                          7       2    2fxyz             3.562000       0.000000
                                                         1.148000       7.778025
                          7       2    2fxz2             3.562000       0.000000
                                                         1.148000       4.490645
                          7       2    2fy3              3.562000       0.000000
                                                         1.148000       2.008277
                          7       2    2fy2z             3.562000       0.000000
                                                         1.148000       4.490645
                          7       2    2fyz2             3.562000       0.000000
                                                         1.148000       4.490645
                          7       2    2fz3              3.562000       0.000000
                                                         1.148000       2.008277

                          8       1    1fx3              0.460000       0.256543
                          8       1    1fx2y             0.460000       0.573647
                          8       1    1fx2z             0.460000       0.573647
                          8       1    1fxy2             0.460000       0.573647
                          8       1    1fxyz             0.460000       0.993585
                          8       1    1fxz2             0.460000       0.573647
                          8       1    1fy3              0.460000       0.256543
                          8       1    1fy2z             0.460000       0.573647
                          8       1    1fyz2             0.460000       0.573647
                          8       1    1fz3              0.460000       0.256543

                          9       1    1gx4              2.376000      12.023008
                          9       1    1gx3y             2.376000      31.809888
                          9       1    1gx3z             2.376000      31.809888
                          9       1    1gx2y2            2.376000      41.066389
                          9       1    1gx2yz            2.376000      71.129073
                          9       1    1gx2z2            2.376000      41.066389
                          9       1    1gxy3             2.376000      31.809888
                          9       1    1gxy2z            2.376000      71.129073
                          9       1    1gxyz2            2.376000      71.129073
                          9       1    1gxz3             2.376000      31.809888
                          9       1    1gy4              2.376000      12.023008
                          9       1    1gy3z             2.376000      31.809888
                          9       1    1gy2z2            2.376000      41.066389
                          9       1    1gyz3             2.376000      31.809888
                          9       1    1gz4              2.376000      12.023008

                         10       1    1gx4              0.924000       0.895434
                         10       1    1gx3y             0.924000       2.369094
                         10       1    1gx3z             0.924000       2.369094
                         10       1    1gx2y2            0.924000       3.058488
                         10       1    1gx2yz            0.924000       5.297456
                         10       1    1gx2z2            0.924000       3.058488
                         10       1    1gxy3             0.924000       2.369094
                         10       1    1gxy2z            0.924000       5.297456
                         10       1    1gxyz2            0.924000       5.297456
                         10       1    1gxz3             0.924000       2.369094
                         10       1    1gy4              0.924000       0.895434
                         10       1    1gy3z             0.924000       2.369094
                         10       1    1gy2z2            0.924000       3.058488
                         10       1    1gyz3             0.924000       2.369094
                         10       1    1gz4              0.924000       0.895434

     AE Potential information for                                            ALL

       Description:                                       All-electron potential
                                          Krack, Parrinello, PCCP 2, 2105 (2000)

       Gaussian exponent of the core charge distribution:              10.470541
       Electronic configuration (s p d ...):                           4   5   0


 MOLECULE KIND INFORMATION


 All atoms are their own molecule, skipping detailed information


 TOTAL NUMBERS AND MAXIMUM NUMBERS

  Total number of            - Atomic kinds:                                   1
                             - Atoms:                                          2
                             - Shell sets:                                    20
                             - Shells:                                        40
                             - Primitive Cartesian functions:                 58
                             - Cartesian basis functions:                    210
                             - Spherical basis functions:                    160

  Maximum angular momentum of the orbital basis functions:                     4


 MODULE QUICKSTEP: ATOMIC COORDINATES IN ANGSTROM

   Atom Kind Element         X             Y             Z       Z(eff)     Mass
      1    1 F     9      3.293508      4.000000      4.000000   9.0000  18.9984
      2    1 F     9      4.706492      4.000000      4.000000   9.0000  18.9984



 SCF PARAMETERS         Density guess:                                    ATOMIC
                        --------------------------------------------------------
                        max_scf:                                              20
                        max_scf_history:                                       0
                        max_diis:                                              4
                        --------------------------------------------------------
                        eps_scf:                                        1.00E-07
                        eps_scf_history:                                0.00E+00
                        eps_diis:                                       1.00E-01
                        eps_eigval:                                     1.00E-05
                        --------------------------------------------------------
                        level_shift [a.u.]:                             0.000000
                        --------------------------------------------------------
                        Outer loop SCF in use 
                        No variables optimised in outer loop
                        eps_scf                                         1.00E-07
                        max_scf                                               50
                        No outer loop optimization
                        step_size                                       5.00E-01

 PW_GRID| Information for grid number                                          1
 PW_GRID| Grid distributed over                                   128 processors
 PW_GRID| Real space group dimensions                                   128    1
 PW_GRID| the grid is blocked:                                                NO
 PW_GRID| Cutoff [a.u.]                                                   1200.0
 PW_GRID| spherical cutoff:                                                   NO
 PW_GRID|   Bounds   1           -120     119                Points:         240
 PW_GRID|   Bounds   2           -120     119                Points:         240
 PW_GRID|   Bounds   3           -120     119                Points:         240
 PW_GRID| Volume element (a.u.^3)  0.2499E-03     Volume (a.u.^3)      3455.1473
 PW_GRID| Grid span                                                    FULLSPACE
 PW_GRID|   Distribution                         Average         Max         Min
 PW_GRID|   G-Vectors                           108000.0      108000      108000
 PW_GRID|   G-Rays                                 450.0         450         450
 PW_GRID|   Real Space Points                   108000.0      115200       57600

 PW_GRID| Information for grid number                                          2
 PW_GRID| Number of the reference grid                                         1
 PW_GRID| Grid distributed over                                   128 processors
 PW_GRID| Real space group dimensions                                   128    1
 PW_GRID| the grid is blocked:                                                NO
 PW_GRID| Cutoff [a.u.]                                                    600.0
 PW_GRID| spherical cutoff:                                                   NO
 PW_GRID|   Bounds   1            -90      89                Points:         180
 PW_GRID|   Bounds   2            -90      89                Points:         180
 PW_GRID|   Bounds   3            -90      89                Points:         180
 PW_GRID| Volume element (a.u.^3)  0.5924E-03     Volume (a.u.^3)      3455.1473
 PW_GRID| Grid span                                                    FULLSPACE
 PW_GRID|   Distribution                         Average         Max         Min
 PW_GRID|   G-Vectors                            45562.5       45720       45360
 PW_GRID|   G-Rays                                 253.1         254         252
 PW_GRID|   Real Space Points                    45562.5       64800       32400

 PW_GRID| Information for grid number                                          3
 PW_GRID| Number of the reference grid                                         2
 PW_GRID| Grid distributed over                                   128 processors
 PW_GRID| Real space group dimensions                                     8   16
 PW_GRID| the grid is blocked:                                                NO
 PW_GRID| Cutoff [a.u.]                                                    200.0
 PW_GRID| spherical cutoff:                                                   NO
 PW_GRID|   Bounds   1            -50      49                Points:         100
 PW_GRID|   Bounds   2            -50      49                Points:         100
 PW_GRID|   Bounds   3            -50      49                Points:         100
 PW_GRID| Volume element (a.u.^3)  0.3455E-02     Volume (a.u.^3)      3455.1473
 PW_GRID| Grid span                                                    FULLSPACE
 PW_GRID|   Distribution                         Average         Max         Min
 PW_GRID|   G-Vectors                             7812.5        7900        7700
 PW_GRID|   G-Rays                                  78.1          79          77
 PW_GRID|   Real Space Points                     7812.5        9100        7200

 PW_GRID| Information for grid number                                          4
 PW_GRID| Number of the reference grid                                         2
 PW_GRID| Grid distributed over                                   128 processors
 PW_GRID| Real space group dimensions                                     8   16
 PW_GRID| the grid is blocked:                                                NO
 PW_GRID| Cutoff [a.u.]                                                     66.7
 PW_GRID| spherical cutoff:                                                   NO
 PW_GRID|   Bounds   1            -30      29                Points:          60
 PW_GRID|   Bounds   2            -30      29                Points:          60
 PW_GRID|   Bounds   3            -30      29                Points:          60
 PW_GRID| Volume element (a.u.^3)  0.1600E-01     Volume (a.u.^3)      3455.1473
 PW_GRID| Grid span                                                    FULLSPACE
 PW_GRID|   Distribution                         Average         Max         Min
 PW_GRID|   G-Vectors                             1687.5        1800        1620
 PW_GRID|   G-Rays                                  28.1          30          27
 PW_GRID|   Real Space Points                     1687.5        1920        1260

 PW_GRID| Information for grid number                                          5
 PW_GRID| Number of the reference grid                                         2
 PW_GRID| Grid distributed over                                   128 processors
 PW_GRID| Real space group dimensions                                     8   16
 PW_GRID| the grid is blocked:                                                NO
 PW_GRID| Cutoff [a.u.]                                                     22.2
 PW_GRID| spherical cutoff:                                                   NO
 PW_GRID|   Bounds   1            -18      17                Points:          36
 PW_GRID|   Bounds   2            -18      17                Points:          36
 PW_GRID|   Bounds   3            -18      17                Points:          36
 PW_GRID| Volume element (a.u.^3)  0.7406E-01     Volume (a.u.^3)      3455.1473
 PW_GRID| Grid span                                                    FULLSPACE
 PW_GRID|   Distribution                         Average         Max         Min
 PW_GRID|   G-Vectors                              364.5         396         324
 PW_GRID|   G-Rays                                  10.1          11           9
 PW_GRID|   Real Space Points                      364.5         540         288

 PW_GRID| Information for grid number                                          6
 PW_GRID| Number of the reference grid                                         2
 PW_GRID| Grid distributed over                                   128 processors
 PW_GRID| Real space group dimensions                                     8   16
 PW_GRID| the grid is blocked:                                                NO
 PW_GRID| Cutoff [a.u.]                                                      7.4
 PW_GRID| spherical cutoff:                                                   NO
 PW_GRID|   Bounds   1            -10       9                Points:          20
 PW_GRID|   Bounds   2            -10       9                Points:          20
 PW_GRID|   Bounds   3            -10       9                Points:          20
 PW_GRID| Volume element (a.u.^3)  0.4319         Volume (a.u.^3)      3455.1473
 PW_GRID| Grid span                                                    FULLSPACE
 PW_GRID|   Distribution                         Average         Max         Min
 PW_GRID|   G-Vectors                               62.5          80          40
 PW_GRID|   G-Rays                                   3.1           4           2
 PW_GRID|   Real Space Points                       62.5         120          40

 POISSON| Solver                                          Martyna-Tuckerman (MT)
 POISSON| MT| Alpha                                                        7.000
 POISSON| MT| Relative cutoff                                                2.0
 POISSON| Periodicity                                                       NONE

 RS_GRID| Information for grid number                                          2
 RS_GRID|   Bounds   1            -90      89                Points:         180
 RS_GRID|   Bounds   2            -90      89                Points:         180
 RS_GRID|   Bounds   3            -90      89                Points:         180
 RS_GRID| Real space distribution over                                  4 groups
 RS_GRID| Real space distribution along direction                              1
 RS_GRID| Border size                                                         35
 RS_GRID| Real space distribution over                                  4 groups
 RS_GRID| Real space distribution along direction                              2
 RS_GRID| Border size                                                         35
 RS_GRID| Real space distribution over                                  8 groups
 RS_GRID| Real space distribution along direction                              3
 RS_GRID| Border size                                                         35
 RS_GRID|   Distribution                         Average         Max         Min
 RS_GRID|   Planes                                 115.0         115         115
 RS_GRID|   Distribution                         Average         Max         Min
 RS_GRID|   Planes                                 115.0         115         115
 RS_GRID|   Distribution                         Average         Max         Min
 RS_GRID|   Planes                                  92.5          93          92

 RS_GRID| Information for grid number                                          3
 RS_GRID|   Bounds   1            -50      49                Points:         100
 RS_GRID|   Bounds   2            -50      49                Points:         100
 RS_GRID|   Bounds   3            -50      49                Points:         100
 RS_GRID| Real space fully replicated
 RS_GRID| Group size                                                           1

 RS_GRID| Information for grid number                                          4
 RS_GRID|   Bounds   1            -30      29                Points:          60
 RS_GRID|   Bounds   2            -30      29                Points:          60
 RS_GRID|   Bounds   3            -30      29                Points:          60
 RS_GRID| Real space fully replicated
 RS_GRID| Group size                                                           1

 RS_GRID| Information for grid number                                          5
 RS_GRID|   Bounds   1            -18      17                Points:          36
 RS_GRID|   Bounds   2            -18      17                Points:          36
 RS_GRID|   Bounds   3            -18      17                Points:          36
 RS_GRID| Real space fully replicated
 RS_GRID| Group size                                                           1

 RS_GRID| Information for grid number                                          6
 RS_GRID|   Bounds   1            -10       9                Points:          20
 RS_GRID|   Bounds   2            -10       9                Points:          20
 RS_GRID|   Bounds   3            -10       9                Points:          20
 RS_GRID| Real space fully replicated
 RS_GRID| Group size                                                           1

 Number of electrons:                                                         18
 Number of occupied orbitals:                                                  9
 Number of molecular orbitals:                                                 9

 Number of orbital functions:                                                160
 Number of independent orbital functions:                                    160

 Extrapolation method: initial_guess

 Atomic guess: The first density matrix is obtained in terms of atomic orbitals
               and electronic configurations assigned to each atomic kind

 Guess for atomic kind: F

 Electronic structure
    Total number of core electrons                                          0.00
    Total number of valence electrons                                       9.00
    Total number of electrons                                               9.00
    Multiplicity                                                   not specified
    S      2.00  2.00
    P      5.00
 

 *******************************************************************************
                  Iteration          Convergence                     Energy [au]
 *******************************************************************************
                          1         1.17292                     -98.889912038172
                          2         1.20456                     -98.822539670153
                          3        0.136795                     -99.090215980023
                          4        0.308380E-02                 -99.093663588935
                          5        0.404338E-03                 -99.093664924495
                          6        0.935440E-05                 -99.093664955718
                          7        0.209808E-06                 -99.093664955735

 Energy components [Hartree]           Total Energy ::          -99.093664955735
                                        Band Energy ::          -52.623521980178
                                     Kinetic Energy ::           98.659947506964
                                   Potential Energy ::         -197.753612462698
                                      Virial (-V/T) ::            2.004396084325
                                        Core Energy ::         -139.008779133021
                                          XC Energy ::           -9.622383184087
                                     Coulomb Energy ::           49.537497361374

 Orbital energies  State     L     Occupation   Energy[a.u.]          Energy[eV]

                       1     0          2.000     -24.186457         -658.146973
                       2     0          2.000      -1.086871          -29.575256
 
                       1     1          5.000      -0.415373          -11.302879
 

 Total Electron Density at R=0:                                       433.797738
 Re-scaling the density matrix to get the right number of electrons
                  # Electrons              Trace(P)               Scaling factor
                           18                18.000                        1.000


 SCF WAVEFUNCTION OPTIMIZATION

  ----------------------------------- OT ---------------------------------------
  Minimizer      : DIIS                : direct inversion
                                         in the iterative subspace
                                         using   7 DIIS vectors
                                         safer DIIS on
  Preconditioner : FULL_ALL            : diagonalization, state selective
  Precond_solver : DEFAULT
  stepsize       :    0.15000000                  energy_gap     :    0.08000000
  eps_taylor     :   0.10000E-15                  max_taylor     :             4
  ----------------------------------- OT ---------------------------------------

  Step     Update method      Time    Convergence         Total energy    Change
  ------------------------------------------------------------------------------
     1 OT DIIS     0.15E+00   36.2     0.42622534      -182.4757957005 -1.82E+02
     2 OT DIIS     0.15E+00   24.7     0.15614945      -196.5635731572 -1.41E+01
     3 OT DIIS     0.15E+00   25.4     0.02622929      -198.5199633133 -1.96E+00
     4 OT DIIS     0.15E+00   25.6     0.01928967      -198.6328892940 -1.13E-01
     5 OT DIIS     0.15E+00   25.3     0.02079248      -198.6933395962 -6.05E-02
     6 OT DIIS     0.15E+00   25.2     0.01561621      -198.9013435965 -2.08E-01
     7 OT SD       0.15E+00   25.6     0.01690489      -198.9904549845 -8.91E-02
     8 OT DIIS     0.15E+00   25.5     0.01286215      -199.0269400150 -3.65E-02
     9 OT DIIS     0.15E+00   25.7     0.01438193      -199.0264189778  5.21E-04
    10 OT DIIS     0.15E+00   25.0     0.01084688      -199.0420981019 -1.57E-02
    11 OT DIIS     0.15E+00   25.6     0.02291433      -199.1702838714 -1.28E-01
    12 OT SD       0.15E+00   24.8     0.01223941      -199.1442131311  2.61E-02
    13 OT SD       0.15E+00   25.9     0.00962356      -199.1630662253 -1.89E-02
    14 OT DIIS     0.15E+00   25.1     0.00846227      -199.1783433641 -1.53E-02
    15 OT DIIS     0.15E+00   24.9     0.00750403      -199.2012085210 -2.29E-02
    16 OT DIIS     0.15E+00   25.3     0.01209190      -199.2354867234 -3.43E-02
    17 OT DIIS     0.15E+00   25.9     0.02435236      -199.1800711187  5.54E-02
    18 OT SD       0.15E+00   26.2     0.00922392      -199.2346408934 -5.46E-02
    19 OT DIIS     0.15E+00   25.4     0.00747382      -199.2457882676 -1.11E-02
    20 OT DIIS     0.15E+00   25.4     0.00677828      -199.2951466224 -4.94E-02

  Leaving inner SCF loop after reaching    20 steps.


  Electronic density on regular grids:        -12.6355881902        5.3644118098
  Core density on regular grids:               18.0000000000        0.0000000000
  Hard and soft densities (Lebedev):          -21.5508809641      -16.1864686327
  Total Rho_soft + Rho1_hard - Rho1_soft      -18.0000005216
  Total charge density (r-space):              -0.0000005216
  Total Rho_soft + Rho0_soft (g-space):        -0.0000009072

  Overlap energy of the core charge distribution:               0.00000000000000
  Self energy of the core charge distribution:               -209.12677936959636
  Core Hamiltonian energy:                                     -9.47509946368474
  Hartree energy:                                              26.47715525361899
  Exchange-correlation energy:                                 -7.57934009645403

  GAPW| Exc from hard and soft atomic rho1:                   -12.99916868029658
  GAPW| local Eh = 1 center integrals:                         13.40808573404724

  Total energy:                                              -199.29514662236551

  outer SCF iter =    1 RMS gradient =   0.68E-02 energy =       -199.2951466224

  ----------------------------------- OT ---------------------------------------
  Minimizer      : DIIS                : direct inversion
                                         in the iterative subspace
                                         using   7 DIIS vectors
                                         safer DIIS on
  Preconditioner : FULL_ALL            : diagonalization, state selective
  Precond_solver : DEFAULT
  stepsize       :    0.15000000                  energy_gap     :    0.08000000
  eps_taylor     :   0.10000E-15                  max_taylor     :             4
  ----------------------------------- OT ---------------------------------------

  Step     Update method      Time    Convergence         Total energy    Change
  ------------------------------------------------------------------------------
     1 OT DIIS     0.15E+00   63.0     0.02968678      -199.3384542245 -4.33E-02
     2 OT DIIS     0.15E+00   25.2     0.01562443      -199.4169274366 -7.85E-02
     3 OT DIIS     0.15E+00   25.6     0.01375266      -199.4228567976 -5.93E-03
     4 OT DIIS     0.15E+00   25.2     0.00284395      -199.4300404033 -7.18E-03
     5 OT DIIS     0.15E+00   25.2     0.00080568      -199.4305722827 -5.32E-04
     6 OT DIIS     0.15E+00   24.6     0.00014849      -199.4306150633 -4.28E-05
     7 OT DIIS     0.15E+00   25.2     0.00005016      -199.4306165975 -1.53E-06
     8 OT DIIS     0.15E+00   25.4     0.00001081      -199.4306167541 -1.57E-07
     9 OT DIIS     0.15E+00   25.4     0.00000172      -199.4306167639 -9.79E-09
    10 OT DIIS     0.15E+00   25.2     0.00000016      -199.4306167644 -4.52E-10
    11 OT DIIS     0.15E+00   25.5     0.00000005      -199.4306167643  6.76E-12

  *** SCF run converged in    11 steps ***


  Electronic density on regular grids:        -12.6396953500        5.3603046500
  Core density on regular grids:               18.0000000000        0.0000000000
  Hard and soft densities (Lebedev):          -21.2791546686      -15.9188482625
  Total Rho_soft + Rho1_hard - Rho1_soft      -18.0000017561
  Total charge density (r-space):              -0.0000017561
  Total Rho_soft + Rho0_soft (g-space):        -0.0000021417

  Overlap energy of the core charge distribution:               0.00000000000000
  Self energy of the core charge distribution:               -209.12677936959636
  Core Hamiltonian energy:                                     -9.72405139071624
  Hartree energy:                                              26.56489564610396
  Exchange-correlation energy:                                 -7.58053750966449

  GAPW| Exc from hard and soft atomic rho1:                   -12.98465372994194
  GAPW| local Eh = 1 center integrals:                         13.42050958946989

  Total energy:                                              -199.43061676434519

  outer SCF iter =    2 RMS gradient =   0.53E-07 energy =       -199.4306167643
  outer SCF loop converged in   2 iterations or   31 steps


 !-----------------------------------------------------------------------------!
                     Mulliken Population Analysis

 #  Atom  Element  Kind  Atomic population                           Net charge
       1     F        1          9.000000                              0.000000
       2     F        1          9.000000                             -0.000000
 # Total charge                             18.000000                  0.000000

 !-----------------------------------------------------------------------------!

 !-----------------------------------------------------------------------------!
                           Hirshfeld Charges

  #Atom  Element  Kind  Ref Charge     Population                    Net charge
      1       F      1       9.000          8.999                         0.001
      2       F      1       9.000          8.999                         0.001

  Total Charge                                                            0.001
 !-----------------------------------------------------------------------------!

 *******************************************************************************
 **                                                                           **
 **         ######## #######   #######   ######## #######  ########           **
 **            ##    ##     ## ##     ## ##       ##   ##     ##              **
 **            ##    ##     ## ##     ## ######   #######     ##              **
 **            ##    ##     ## ##     ## ##       ##          ##              **
 **            ##    #######   #######   ##       ##          ##              **
 **                                                                           **
 *******************************************************************************
[...]
 -------------------------------------------------------------------------------
 COUNTER                                    TOTAL       BLAS       SMM       ACC
 flops     9 x     9 x     9               389286       0.0%    100.0%      0.0%
 flops   160 x     9 x     9              4069440       0.0%    100.0%      0.0%
 flops    80 x    23 x    80              4710400       0.0%    100.0%      0.0%
 flops    80 x    32 x    80             26214400       0.0%    100.0%      0.0%
 flops   160 x     9 x    80             33177600       0.0%    100.0%      0.0%
 flops     9 x     9 x    80             55105920       0.0%    100.0%      0.0%
 flops    80 x    80 x     9            100915200       0.0%    100.0%      0.0%
 flops    80 x     9 x    80            365184000       0.0%    100.0%      0.0%
 flops inhomo. stacks                           0       0.0%      0.0%      0.0%
 flops total                       589.766246E+06       0.0%    100.0%      0.0%
 flops max/rank                    367.942246E+06       0.0%    100.0%      0.0%
 matmuls inhomo. stacks                         0       0.0%      0.0%      0.0%
 matmuls total                               8946       0.0%    100.0%      0.0%
 number of processed stacks                  7092       0.0%    100.0%      0.0%
 average stack size                                     0.0       1.3       0.0
 marketing flops                   637.971328E+06
 -------------------------------------------------------------------------------
 # multiplications                           1584
 max memory usage/rank             739.823616E+06
 # max total images/rank                        2
 # max 3D layers                                1
 # MPI messages exchanged                 5879808
 MPI messages size (bytes):
  total size                         2.463956E+09
  min size                           0.000000E+00
  max size                         102.400000E+03
  average size                     419.053772E+00
 MPI breakdown and total messages size (bytes):
             size <=      128             5814444                        0
       128 < size <=     8192               35549                169116264
      8192 < size <=    32768                8215                 96823040
     32768 < size <=   131072               21600               2198016000
    131072 < size <=  4194304                   0                        0
   4194304 < size <= 16777216                   0                        0
  16777216 < size                               0                        0
 -------------------------------------------------------------------------------

 *** WARNING in dbcsr_mm.F:291 :: Using a non-square number of MPI ranks ***
 *** might lead to poor performance. Used ranks: 128 Suggested: 121 256  ***

 -------------------------------------------------------------------------------
 -                                                                             -
 -                      DBCSR MESSAGE PASSING PERFORMANCE                      -
 -                                                                             -
 -------------------------------------------------------------------------------
 ROUTINE             CALLS      AVE VOLUME [Bytes]
 MP_Bcast                9                     12.
 MP_Allreduce         7021                      8.
 MP_Alltoall         18275                  37892.
 MP_ISend            98982                   2150.
 MP_IRecv            98186                   1546.
 -------------------------------------------------------------------------------

 -------------------------------------------------------------------------------
 -                                                                             -
 -                                DBM STATISTICS                               -
 -                                                                             -
 -------------------------------------------------------------------------------
    M  x    N  x    K                                          COUNT     PERCENT
 -------------------------------------------------------------------------------

 -------------------------------------------------------------------------------
 -                                                                             -
 -                                GRID STATISTICS                              -
 -                                                                             -
 -------------------------------------------------------------------------------
 LP    KERNEL             BACKEND                              COUNT     PERCENT
 2     collocate general  CPU                                  26368       8.72%
 2     integrate general  CPU                                  25856       8.55%
 4     collocate ortho    CPU                                  24108       7.97%
 4     integrate ortho    CPU                                  23667       7.83%
 3     collocate ortho    CPU                                  23616       7.81%
 3     integrate ortho    CPU                                  23184       7.67%
 2     collocate ortho    CPU                                  19680       6.51%
 2     integrate ortho    CPU                                  19320       6.39%
 5     collocate ortho    CPU                                  16728       5.53%
 5     integrate ortho    CPU                                  16422       5.43%
 1     collocate ortho    CPU                                  15744       5.21%
 1     integrate ortho    CPU                                  15456       5.11%
 6     collocate ortho    CPU                                  10332       3.42%
 6     integrate ortho    CPU                                  10143       3.35%
 0     collocate ortho    CPU                                   7872       2.60%
 0     integrate ortho    CPU                                   7728       2.56%
 7     collocate ortho    CPU                                   5904       1.95%
 7     integrate ortho    CPU                                   5796       1.92%
 8     collocate ortho    CPU                                   1968       0.65%
 8     integrate ortho    CPU                                   1932       0.64%
 0     collocate general  CPU                                    256       0.08%
 0     integrate general  CPU                                    256       0.08%
 -------------------------------------------------------------------------------

 MEMORY| Estimated peak process memory [MiB]                                 706

 -------------------------------------------------------------------------------
 ----                             MULTIGRID INFO                            ----
 -------------------------------------------------------------------------------
 count for grid        1:        5681435          cutoff [a.u.]          600.00
 count for grid        2:         692248          cutoff [a.u.]          200.00
 count for grid        3:         380406          cutoff [a.u.]           66.67
 count for grid        4:          99275          cutoff [a.u.]           22.22
 count for grid        5:           3852          cutoff [a.u.]            7.41
 total gridlevel count  :        6857216

 -------------------------------------------------------------------------------
 -                                                                             -
 -                         MESSAGE PASSING PERFORMANCE                         -
 -                                                                             -
 -------------------------------------------------------------------------------

 ROUTINE             CALLS      AVE VOLUME [Bytes]
 MP_Group                6
 MP_Bcast             1082                 218686.
 MP_Allreduce         7140                  29754.
 MP_Sync               746
 MP_Alltoall          4631                1395594.
 MP_SendRecv         83312                  23360.
 MP_ISendRecv        81788                  23360.
 MP_Wait            108921
 MP_comm_split          91
 MP_ISend            28220                 186069.
 MP_IRecv            30823                 170372.
 -------------------------------------------------------------------------------


 -------------------------------------------------------------------------------
 -                                                                             -
 -                           R E F E R E N C E S                               -
 -                                                                             -
 -------------------------------------------------------------------------------
 
 CP2K version 2024.1 (Development Version), the CP2K developers group (2024).
 CP2K is freely available from https://www.cp2k.org/ .

 Kuehne,Thomas D.; Iannuzzi,Marcella; Del Ben,Mauro;
 Rybkin,Vladimir V.; Seewald,Patrick; Stein,Frederick; Laino,Teodoro;
 Khaliullin,Rustam Z.; Schuett,Ole; Schiffmann,Florian; Golze,Dorothea;
 Wilhelm,Jan; Chulkov,Sergey; Bani-Hashemian,Mohammad Hossein;
 Weber,Valery; Borstnik,Urban; Taillefumier,Mathieu;
 Jakobovits,Alice Shoshana; Lazzaro,Alfio; Pabst,Hans; Mueller,Tiziano;
 Schade,Robert; Guidon,Manuel; Andermatt,Samuel; Holmberg,Nico;
 Schenter,Gregory K.; Hehn,Anna; Bussy,Augustin; Belleflamme,Fabian;
 Tabacchi,Gloria; Gloess,Andreas; Lass,Michael; Bethune,Iain;
 Mundy,Christopher J.; Plessl,Christian; Watkins,Matt;
 VandeVondele,Joost; Krack,Matthias; Hutter,Juerg. 
 The Journal of Chemical Physics, 152 (19), (2020). 
 CP2K: An electronic structure and molecular dynamics software package -
 Quickstep: Efficient and accurate electronic structure calculations.
 https://doi.org/10.1063/5.0007045

 Schuett, Ole; Messmer, Peter; Hutter, Juerg; VandeVondele, Joost. 
 Electronic Structure Calculations on Graphics Processing Units, John
 Wiley & Sons, Ltd, 173-190 (2016). 
 GPU-Accelerated Sparse Matrix-Matrix Multiplication for
 Linear Scaling Density Functional Theory.
 https://doi.org/10.1002/9781118670712.ch8

 Heinecke, A; Henry, G; Hutchinson, M; Pabst, H. 
 Proceedings of Intl. Supercomputing Conference, 981-991 (2016). 
 LIBXSMM: Accelerating Small Matrix Multiplications
 by Runtime Code Generation.
 https://doi.org/10.1109/SC.2016.83

 Borstnik, U; VandeVondele, J; Weber, V; Hutter, J. 
 PARALLEL COMPUTING, 40 (5-6), 47-58 (2014). 
 Sparse matrix multiplication: The distributed block-compressed sparse
 row library.
 https://doi.org/10.1016/j.parco.2014.03.012

 Hutter, J; Iannuzzi, M; Schiffmann, F; VandeVondele, J. 
 WIREs Comput Mol Sci., 4 (1), 15-25 (2014). 
 CP2K: atomistic simulations of condensed matter systems.
 https://doi.org/10.1002/wcms.1159

 Frigo, M; Johnson, SG. 
 PROCEEDINGS OF THE IEEE, 93 (2), 216-231 (2005). 
 The design and implementation of FFTW3.
 https://doi.org/10.1109/JPROC.2004.840301

 Iannuzzi, M; Chassaing, T; Wallman, T; Hutter, J. 
 CHIMIA, 59 (7-8), 499-503 (2005). 
 Ground and excited state density functional calculations with the
 Gaussian and augmented-plane-wave method.
 https://doi.org/10.2533/000942905777676164

 VandeVondele, J; Hutter, J. 
 JOURNAL OF CHEMICAL PHYSICS, 118 (10), 4365-4369 (2003). 
 An efficient orbital transformation method for electronic structure
 calculations.
 https://doi.org/10.1063/1.1543154

 Martin,Richard L.. 
 The Journal of Chemical Physics, 118 (11), 4775-4777 (2003). 
 Natural transition orbitals.
 https://doi.org/10.1063/1.1558471

 Lippert, G; Hutter, J; Parrinello, M. 
 THEORETICAL CHEMISTRY ACCOUNTS, 103 (2), 124-140 (1999). 
 The Gaussian and augmented-plane-wave density functional method for ab
 initio molecular dynamics simulations.
 https://doi.org/10.1007/s002140050523

 Krack, M; Parrinello, M. 
 PHYSICAL CHEMISTRY CHEMICAL PHYSICS, 2 (10), 2105-2112 (2000). 
 All-electron ab-initio molecular dynamics.
 https://doi.org/10.1039/b001167n

 Martyna, GJ; Tuckerman, ME. 
 JOURNAL OF CHEMICAL PHYSICS, 110 (6), 2810-2821 (1999). 
 A reciprocal space based method for treating long range interactions in
 ab initio and force-field-based calculations in clusters.
 https://doi.org/10.1063/1.477923

 Perdew, JP; Burke, K; Ernzerhof, M. 
 PHYSICAL REVIEW LETTERS, 77 (18), 3865-3868 (1996). 
 Generalized gradient approximation made simple.
 https://doi.org/10.1103/PhysRevLett.77.3865


 -------------------------------------------------------------------------------
 -                                                                             -
 -                                T I M I N G                                  -
 -                                                                             -
 -------------------------------------------------------------------------------
 SUBROUTINE                       CALLS  ASD         SELF TIME        TOTAL TIME
                                MAXIMUM       AVERAGE  MAXIMUM  AVERAGE  MAXIMUM
 CP2K                                 1  1.0    0.248    0.358 2620.846 2620.851
 qs_energies                          1  2.0    0.001    0.025 2619.477 2619.499
 qs_energies_properties               1  3.0    0.000    0.008 1798.348 1798.370
 tddfpt                               1  4.0    0.000    0.006 1798.348 1798.370
 tddfpt_soc_energies                  1  5.0    0.000    0.003 1790.555 1790.580
 tddfpt_energies                      2  6.0    0.001    0.003 1736.778 1736.788
 tddfpt_davidson_solver               4  7.0    0.013    0.042 1627.705 1627.730
 tddfpt_compute_Aop_evects           13  8.0    0.000    0.000 1201.622 1201.699
 dbcsr_multiply_generic            1584 10.7    0.160    0.305 1119.242 1131.622
 fhxc_kernel                         13  9.0    0.004    0.014 1016.184 1016.309
 scf_env_do_scf                       1  3.0    0.001    0.015  811.737  811.784
 scf_env_do_scf_inner_loop           31  4.0    0.003    0.046  772.744  772.769
 cp_dbcsr_sm_fm_multiply            566  9.3    0.007    0.028  733.863  739.551
 multiply_cannon                   1584 11.7    4.293    4.808  621.360  639.808
 qs_scf_new_mos                      31  5.0    0.000    0.000  604.687  605.657
 qs_scf_loop_do_ot                   31  6.0    0.000    0.000  604.687  605.657
 ot_scf_mini                         31  7.0    0.000    0.000  577.549  578.437
 multiply_cannon_loop              1584 12.7    0.828    1.132  555.316  574.839
 multiply_cannon_multrec          25344 13.7  422.037  472.175  422.044  472.180
 pw_transfer                       3618 12.1    0.102    0.143  460.488  461.990
 fft_wrap_pw1pw2                   3313 13.1    0.009    0.029  459.987  461.514
 fft3d_ps                          3313 15.1    8.109    9.467  458.340  459.923
 ot_mini                             31  8.0    0.003    0.025  390.746  391.415
 dbcsr_complete_redistribute       1662 11.4    0.080    0.537  349.801  354.789
 cp_dbcsr_sm_fm_multiply_core       566 10.3    0.001    0.014  327.310  335.214
 tddfpt_orthonormalize_psi1_psi      15  7.9    0.006    0.058  327.237  329.375
 qs_ot_get_derivative                31  9.0    0.000    0.008  323.793  324.729
 mp_sum_l                          7017 11.1  308.320  318.132  308.320  318.132
 copy_dbcsr_to_fm                   653 10.2    0.006    0.036  301.380  308.379
 qs_rho_update_rho_low              164  9.0    0.006    0.023  278.567  281.063
 mp_alltoall_z22v                  3313 17.1  259.453  264.445  259.453  264.445
 cp_dbcsr_plus_fm_fm_t_native       131 10.0    0.002    0.012  255.606  258.159
 mp_waitall_1                    262501 14.5  180.492  246.657  180.492  246.657
 calculate_rho_elec                 164 10.0    0.022    0.042  242.598  244.864
 qs_ot_get_derivative_diag           29 10.0    0.000    0.001  239.327  240.246
 fft_wrap_pw1pw2_600               2012 14.3    0.163    0.196  232.881  234.973
 density_rs2pw                      164 11.0    0.006    0.035  207.220  208.956
 copy_fm_to_dbcsr                  1009 10.6    0.003    0.003  202.006  208.246
 integrate_v_rspace                 161  9.8    0.003    0.003  203.993  207.084
 potential_pw2rs                    161 10.8    0.005    0.016  196.166  196.491
 mp_alltoall_i22                   2345 12.3  178.430  189.684  178.430  189.684
 tddfpt_apply_energy_diff            13  9.0    0.000    0.001  185.438  185.525
 mp_alltoall_d11v                  7360 12.6  161.639  179.788  161.639  179.788
 multiply_cannon_metrocomm3       25344 13.7    0.044    0.079  107.915  162.949
 dbcsr_desymmetrize_deep            654 11.2    0.011    0.052  153.150  160.680
 mp_sum_dv                         4060 10.3  151.813  156.395  151.813  156.395
 mp_alltoall_z11v                   975 16.9  146.145  147.726  146.145  147.726
 cp_fm_trace_a1b1t1_aa             3325  9.0    7.099   10.229  138.586  140.572
 make_m2s                          3168 11.7    0.029    0.040  131.592  139.482
 make_images                       3168 12.7    8.819    9.575  130.863  136.702
 xc_pw_derive                      1155 11.7    0.005    0.023  131.025  131.819
 tddfpt_apply_xc_analytic           130 10.0    0.052    0.072  124.968  125.188
 qs_ot_get_p                         33  7.9    0.000    0.000  123.074  124.007
 make_images_sizes                 3168 13.7    0.005    0.024  121.119  123.581
 mp_alltoall_i44                   3168 14.7  121.115  123.568  121.115  123.568
 qs_ks_update_qs_env                 33  5.0    0.000    0.001  120.982  122.411
 rebuild_ks_matrix                   31  6.0    0.006    0.022  120.878  122.302
 qs_ks_build_kohn_sham_matrix        31  7.0    0.009    0.028  120.871  122.292
 x_to_yz                           1098 15.9    3.198    3.641  120.827  122.219
 tddfpt_compute_residual_vects        9  8.0    0.000    0.000  116.455  116.754
 yz_to_x                            915 16.7    0.176    0.254  104.827  106.392
 xz_to_yz                           656 16.0    1.673    1.935   93.382   94.598
 yz_to_xz                           644 15.8    1.568    1.849   91.724   93.434
 mp_alltoall_i11v                  5727 12.4   89.837   92.292   89.837   92.292
 qs_ot_p2m_diag                      31  9.0    0.003    0.024   77.652   78.652
 fft_wrap_pw1pw2_70                 325 13.9    0.003    0.014   75.861   76.614
 xc_pw_divergence                   161 11.6    0.002    0.012   75.217   75.941
 transfer_rs2pw                     924 11.9    0.005    0.016   70.484   71.805
 transfer_pw2rs                     907 11.7    0.004    0.026   70.183   70.922
 mp_cart_sub                       1316 12.1   67.647   70.757   67.647   70.757
 tddfpt_print_nto_analysis            2  7.0    0.002    0.026   70.185   70.487
 xc_calc_2nd_deriv_analytical       390 11.0    1.579    2.195   62.306   62.741
 mp_allgather_i34                  1584 12.7   60.590   61.999   60.590   61.999
 ot_diis_step                        31  9.0    0.005    0.025   61.738   61.871
 mp_sum_dm                          971 10.9   61.054   61.784   61.054   61.784
 fft_wrap_pw1pw2_30                 325 13.9    0.002    0.013   59.094   59.846
 mp_sum_d                          1608  8.1   55.299   57.569   55.299   57.569
 tddfpt_soc                           1  6.0    0.000    0.000   52.591   52.613
 tddfpt_soc_rcs                       1  7.0    0.012    0.049   52.591   52.613
 -------------------------------------------------------------------------------

 The number of warnings for this run is : 1
 
 -------------------------------------------------------------------------------
  **** **** ******  **  PROGRAM ENDED AT                 2024-01-12 15:34:57.771
 ***** ** ***  *** **   PROGRAM RAN ON                               nesh-srp245
 **    ****   ******    PROGRAM RAN BY                                  suphc355
 ***** **    ** ** **   PROGRAM PROCESS ID                               2635347
  **** **  *******  **  PROGRAM STOPPED IN /gxfs_work/cau/suphc355/homologes/X2/
                                           AE/F
