 DBCSR| CPU Multiplication driver                                           XSMM (U)
 DBCSR| Multrec recursion limit                                              512 (U)
 DBCSR| Multiplication stack size                                           1000 (D)
 DBCSR| Maximum elements for images                                    UNLIMITED (U)
 DBCSR| Multiplicative factor virtual images                                   1 (U)
 DBCSR| Use multiplication densification                                       T (D)
 DBCSR| Multiplication size stacks                                             3 (U)
 DBCSR| Use memory pool for CPU allocation                                     F (U)
 DBCSR| Number of 3D layers                                               SINGLE (U)
 DBCSR| Use MPI memory allocation                                              F (U)
 DBCSR| Use RMA algorithm                                                      F (U)
 DBCSR| Use Communication thread                                               T (U)
 DBCSR| Communication thread load                                             83 (D)
 DBCSR| MPI: My process id                                                     0
 DBCSR| MPI: Number of processes                                              64
 DBCSR| OMP: Current number of threads                                         2
 DBCSR| OMP: Max number of threads                                             2
 DBCSR| Split modifier for TAS multiplication algorithm                  1.0E+00 (U)


  **** **** ******  **  PROGRAM STARTED AT               2023-12-06 09:20:15.536
 ***** ** ***  *** **   PROGRAM STARTED ON                           nesh-clk622
 **    ****   ******    PROGRAM STARTED BY                              suphc355
 ***** **    ** ** **   PROGRAM PROCESS ID                               3668473
  **** **  *******  **  PROGRAM STARTED IN /gxfs_work/cau/suphc355/homologes/HX/
                                           AE/F

 CP2K| version string:                 CP2K version 2023.2 (Development Version)
 CP2K| source code revision number:                                  git:845a3ae
 CP2K| cp2kflags: omp libint fftw3 libxc parallel mpi_f08 scalapack cosma xsmm s
 CP2K|            pglib mkl
 CP2K| is freely available from                            https://www.cp2k.org/
 CP2K| Program compiled at                           Fr 1. Dez 12:58:35 CET 2023
 CP2K| Program compiled on                                           nesh-login3
 CP2K| Program compiled for                                                local
 CP2K| Data directory path            /gxfs_home/cau/suphc355/software/cp2k/data
 CP2K| Input file name                                                    AE.inp
 
 GLOBAL| Force Environment number                                              1
 GLOBAL| Basis set file name                                   ../../../basis_ae
 GLOBAL| Potential file name                                           POTENTIAL
 GLOBAL| MM Potential file name                                     MM_POTENTIAL
 GLOBAL| Coordinate file name                                            opt.xyz
 GLOBAL| Method name                                                        CP2K
 GLOBAL| Project name                                                      HF_AE
 GLOBAL| Run type                                                         ENERGY
 GLOBAL| FFT library                                                       FFTW3
 GLOBAL| Diagonalization library                                       ScaLAPACK
 GLOBAL| DGEMM library                                                      BLAS
 GLOBAL| Orthonormality check for eigenvectors                          DISABLED
 GLOBAL| Matrix multiplication library                                     COSMA
 GLOBAL| All-to-all communication in single precision                          F
 GLOBAL| FFTs using library dependent lengths                                  F
 GLOBAL| Grid backend                                                       AUTO
 GLOBAL| Global print level                                               MEDIUM
 GLOBAL| MPI I/O enabled                                                       T
 GLOBAL| Total number of message passing processes                            64
 GLOBAL| Number of threads for this process                                    2
 GLOBAL| This output is from process                                           0
 GLOBAL| Stack size for threads created by OpenMP (OMP_STACKSIZE)        default
 GLOBAL| CPU model name                Intel(R) Xeon(R) Gold 6226R CPU @ 2.90GHz
 GLOBAL| CPUID                                                              1003

 MEMORY| system memory details [Kb]
 MEMORY|                        rank 0           min           max       average
 MEMORY| MemTotal            196683224     196683224     196683224     196683224
 MEMORY| MemFree             176651276     176476052     176651276     176563683
 MEMORY| Buffers                721924        721924        800388        761156
 MEMORY| Cached                1320700       1287420       1320700       1304060
 MEMORY| Slab                   553448        553448        574144        563796
 MEMORY| SReclaimable           182268        182268        197240        189754
 MEMORY| MemLikelyFree       178876168     178761100     178876168     178818653


 *** Fundamental physical constants (SI units) ***

 *** Literature: B. J. Mohr and B. N. Taylor,
 ***             CODATA recommended values of the fundamental physical
 ***             constants: 2006, Web Version 5.1
 ***             http://physics.nist.gov/constants

 Speed of light in vacuum [m/s]                             2.99792458000000E+08
 Magnetic constant or permeability of vacuum [N/A**2]       1.25663706143592E-06
 Electric constant or permittivity of vacuum [F/m]          8.85418781762039E-12
 Planck constant (h) [J*s]                                  6.62606896000000E-34
 Planck constant (h-bar) [J*s]                              1.05457162825177E-34
 Elementary charge [C]                                      1.60217648700000E-19
 Electron mass [kg]                                         9.10938215000000E-31
 Electron g factor [ ]                                     -2.00231930436220E+00
 Proton mass [kg]                                           1.67262163700000E-27
 Fine-structure constant                                    7.29735253760000E-03
 Rydberg constant [1/m]                                     1.09737315685270E+07
 Avogadro constant [1/mol]                                  6.02214179000000E+23
 Boltzmann constant [J/K]                                   1.38065040000000E-23
 Atomic mass unit [kg]                                      1.66053878200000E-27
 Bohr radius [m]                                            5.29177208590000E-11

 *** Conversion factors ***

 [u] -> [a.u.]                                              1.82288848426455E+03
 [Angstrom] -> [Bohr] = [a.u.]                              1.88972613288564E+00
 [a.u.] = [Bohr] -> [Angstrom]                              5.29177208590000E-01
 [a.u.] -> [s]                                              2.41888432650478E-17
 [a.u.] -> [fs]                                             2.41888432650478E-02
 [a.u.] -> [J]                                              4.35974393937059E-18
 [a.u.] -> [N]                                              8.23872205491840E-08
 [a.u.] -> [K]                                              3.15774647902944E+05
 [a.u.] -> [kJ/mol]                                         2.62549961709828E+03
 [a.u.] -> [kcal/mol]                                       6.27509468713739E+02
 [a.u.] -> [Pa]                                             2.94210107994716E+13
 [a.u.] -> [bar]                                            2.94210107994716E+08
 [a.u.] -> [atm]                                            2.90362800883016E+08
 [a.u.] -> [eV]                                             2.72113838565563E+01
 [a.u.] -> [Hz]                                             6.57968392072181E+15
 [a.u.] -> [1/cm] (wave numbers)                            2.19474631370540E+05
 [a.u./Bohr**2] -> [1/cm]                                   5.14048714338585E+03
 

 CELL_TOP| Volume [angstrom^3]:                                       512.000000
 CELL_TOP| Vector a [angstrom     8.000     0.000     0.000   |a| =     8.000000
 CELL_TOP| Vector b [angstrom     0.000     8.000     0.000   |b| =     8.000000
 CELL_TOP| Vector c [angstrom     0.000     0.000     8.000   |c| =     8.000000
 CELL_TOP| Angle (b,c), alpha [degree]:                                90.000000
 CELL_TOP| Angle (a,c), beta  [degree]:                                90.000000
 CELL_TOP| Angle (a,b), gamma [degree]:                                90.000000
 CELL_TOP| Numerically orthorhombic:                                         YES
 CELL_TOP| Periodicity                                                      NONE
 
 GENERATE|  Preliminary Number of Bonds generated:                             0
 GENERATE|  Achieved consistency in connectivity generation.

 CELL| Volume [angstrom^3]:                                           512.000000
 CELL| Vector a [angstrom]:       8.000     0.000     0.000   |a| =     8.000000
 CELL| Vector b [angstrom]:       0.000     8.000     0.000   |b| =     8.000000
 CELL| Vector c [angstrom]:       0.000     0.000     8.000   |c| =     8.000000
 CELL| Angle (b,c), alpha [degree]:                                    90.000000
 CELL| Angle (a,c), beta  [degree]:                                    90.000000
 CELL| Angle (a,b), gamma [degree]:                                    90.000000
 CELL| Numerically orthorhombic:                                             YES
 CELL| Periodicity                                                          NONE

 CELL_REF| Volume [angstrom^3]:                                       512.000000
 CELL_REF| Vector a [angstrom     8.000     0.000     0.000   |a| =     8.000000
 CELL_REF| Vector b [angstrom     0.000     8.000     0.000   |b| =     8.000000
 CELL_REF| Vector c [angstrom     0.000     0.000     8.000   |c| =     8.000000
 CELL_REF| Angle (b,c), alpha [degree]:                                90.000000
 CELL_REF| Angle (a,c), beta  [degree]:                                90.000000
 CELL_REF| Angle (a,b), gamma [degree]:                                90.000000
 CELL_REF| Numerically orthorhombic:                                         YES
 CELL_REF| Periodicity                                                      NONE

 *******************************************************************************
 *******************************************************************************
 **                                                                           **
 **     #####                         ##              ##                      **
 **    ##   ##            ##          ##              ##                      **
 **   ##     ##                       ##            ######                    **
 **   ##     ##  ##   ##  ##   #####  ##  ##   ####   ##    #####    #####    **
 **   ##     ##  ##   ##  ##  ##      ## ##   ##      ##   ##   ##  ##   ##   **
 **   ##  ## ##  ##   ##  ##  ##      ####     ###    ##   ######   ######    **
 **    ##  ###   ##   ##  ##  ##      ## ##      ##   ##   ##       ##        **
 **     #######   #####   ##   #####  ##  ##  ####    ##    #####   ##        **
 **           ##                                                    ##        **
 **                                                                           **
 **                                                ... make the atoms dance   **
 **                                                                           **
 **            Copyright (C) by CP2K developers group (2000-2023)             **
 **                      J. Chem. Phys. 152, 194103 (2020)                    **
 **                                                                           **
 *******************************************************************************

 DFT| Spin restricted Kohn-Sham (RKS) calculation                            RKS
 DFT| Multiplicity                                                             1
 DFT| Number of spin states                                                    1
 DFT| Charge                                                                   0
 DFT| Self-interaction correction (SIC)                                       NO
 DFT| Cutoffs: density                                              1.000000E-10
 DFT|          gradient                                             1.000000E-10
 DFT|          tau                                                  1.000000E-10
 DFT|          cutoff_smoothing_range                               0.000000E+00
 DFT| XC density smoothing                                                  NONE
 DFT| XC derivatives                                                          PW

 FUNCTIONAL| PBE:
 FUNCTIONAL| J.P.Perdew, K.Burke, M.Ernzerhof, Phys. Rev. Letter, vol. 77, n 18,
 FUNCTIONAL|  pp. 3865-3868, (1996) {spin unpolarized}                          


 QS| Method:                                                                GAPW
 QS| Density plane wave grid type                        NON-SPHERICAL FULLSPACE
 QS| Number of grid levels:                                                    5
 QS| Density cutoff [a.u.]:                                                600.0
 QS| Multi grid cutoff [a.u.]: 1) grid level                               600.0
 QS|                           2) grid level                               200.0
 QS|                           3) grid level                                66.7
 QS|                           4) grid level                                22.2
 QS|                           5) grid level                                 7.4
 QS| Grid level progression factor:                                          3.0
 QS| Relative density cutoff [a.u.]:                                        40.0
 QS| Interaction thresholds: eps_pgf_orb:                                1.0E-30
 QS|                         eps_filter_matrix:                          0.0E+00
 QS|                         eps_core_charge:                            1.0E-17
 QS|                         eps_rho_gspace:                             1.0E-15
 QS|                         eps_rho_rspace:                             1.0E-15
 QS|                         eps_gvg_rspace:                             3.2E-08
 QS|                         eps_ppl:                                    1.0E-02
 QS|                         eps_ppnl:                                   3.2E-10
 QS| GAPW|      One center basis from orbital basis primitives
 QS| GAPW|                   eps_fit:                                    1.0E-04
 QS| GAPW|                   eps_iso:                                    1.0E-12
 QS| GAPW|                   eps_svd:                                    1.0E-08
 QS| GAPW|                   eps_cpc:                                    1.0E-15
 QS| GAPW|   atom-r-grid: quadrature:                                     GC_LOG
 QS| GAPW|      atom-s-grid:  max l :                                          6
 QS| GAPW|      max_l_rho0 :                                                   2


 ATOMIC KIND INFORMATION

  1. Atomic kind: F                                     Number of atoms:       1

     Orbital Basis Set                                                 def2-TZVP

       Number of orbital shell sets:                                          11
       Number of orbital shells:                                              11
       Number of primitive Cartesian functions:                               20
       Number of Cartesian basis functions:                                   36
       Number of spherical basis functions:                                   31
       Norm type:                                                              2

       Normalised Cartesian orbitals:

                        Set   Shell   Orbital            Exponent    Coefficient

                          1       1    1s            35479.100441       1.035166
                                                      5318.472898       1.933117
                                                      1210.481098       3.308168
                                                       342.855181       5.190436
                                                       112.019432       7.145372
                                                        40.714740       7.785360

                          2       1    1s               16.039678       3.615646
                                                         6.503819       1.164999

                          3       1    1s                1.544048       0.987201

                          4       1    1s                0.612235       0.493286

                          5       1    1s                0.240280       0.244595

                          6       1    1px              80.233900       4.217408
                                                        18.594011       4.717426
                                                         5.686790       4.084910
                                                         1.951101       2.299897
                          6       1    1py              80.233900       4.217408
                                                        18.594011       4.717426
                                                         5.686790       4.084910
                                                         1.951101       2.299897
                          6       1    1pz              80.233900       4.217408
                                                        18.594011       4.717426
                                                         5.686790       4.084910
                                                         1.951101       2.299897

                          7       1    1px               0.669702       0.863559
                          7       1    1py               0.669702       0.863559
                          7       1    1pz               0.669702       0.863559

                          8       1    1px               0.216513       0.210521
                          8       1    1py               0.216513       0.210521
                          8       1    1pz               0.216513       0.210521

                          9       1    1dx2              3.107000      11.967589
                          9       1    1dxy              3.107000      20.728471
                          9       1    1dxz              3.107000      20.728471
                          9       1    1dy2              3.107000      11.967589
                          9       1    1dyz              3.107000      20.728471
                          9       1    1dz2              3.107000      11.967589

                         10       1    1dx2              0.855000       1.251267
                         10       1    1dxy              0.855000       2.167259
                         10       1    1dxz              0.855000       2.167259
                         10       1    1dy2              0.855000       1.251267
                         10       1    1dyz              0.855000       2.167259
                         10       1    1dz2              0.855000       1.251267

                         11       1    1fx3              1.917000       6.365818
                         11       1    1fx2y             1.917000      14.234401
                         11       1    1fx2z             1.917000      14.234401
                         11       1    1fxy2             1.917000      14.234401
                         11       1    1fxyz             1.917000      24.654706
                         11       1    1fxz2             1.917000      14.234401
                         11       1    1fy3              1.917000       6.365818
                         11       1    1fy2z             1.917000      14.234401
                         11       1    1fyz2             1.917000      14.234401
                         11       1    1fz3              1.917000       6.365818

       Atomic covalent radius [Angstrom]:                                  0.720

       Atomic van der Waals radius [Angstrom]:                             1.470

     The atoms of this atomic kind are PAW atoms (GAPW):
       Hard Gaussian function radius:                                      1.512
       Rho0 radius:                                                        1.512
       Maximum GTO radius used for PAW projector construction:            24.566

     GAPW Soft Basis Set                                          def2-TZVP_soft

       Number of orbital shell sets:                                          11
       Number of orbital shells:                                              11
       Number of primitive Cartesian functions:                                9
       Number of Cartesian basis functions:                                   36
       Number of spherical basis functions:                                   31
       Norm type:                                                              2

       Normalised Cartesian orbitals:

                        Set   Shell   Orbital            Exponent    Coefficient

                          1       1    1s         

                          2       1    1s         

                          3       1    1s                1.544048       0.987201

                          4       1    1s                0.612235       0.493286

                          5       1    1s                0.240280       0.244595

                          6       1    1px               1.951101       2.299897
                          6       1    1py               1.951101       2.299897
                          6       1    1pz               1.951101       2.299897

                          7       1    1px               0.669702       0.863559
                          7       1    1py               0.669702       0.863559
                          7       1    1pz               0.669702       0.863559

                          8       1    1px               0.216513       0.210521
                          8       1    1py               0.216513       0.210521
                          8       1    1pz               0.216513       0.210521

                          9       1    1dx2              3.107000      11.967589
                          9       1    1dxy              3.107000      20.728471
                          9       1    1dxz              3.107000      20.728471
                          9       1    1dy2              3.107000      11.967589
                          9       1    1dyz              3.107000      20.728471
                          9       1    1dz2              3.107000      11.967589

                         10       1    1dx2              0.855000       1.251267
                         10       1    1dxy              0.855000       2.167259
                         10       1    1dxz              0.855000       2.167259
                         10       1    1dy2              0.855000       1.251267
                         10       1    1dyz              0.855000       2.167259
                         10       1    1dz2              0.855000       1.251267

                         11       1    1fx3              1.917000       6.365818
                         11       1    1fx2y             1.917000      14.234401
                         11       1    1fx2z             1.917000      14.234401
                         11       1    1fxy2             1.917000      14.234401
                         11       1    1fxyz             1.917000      24.654706
                         11       1    1fxz2             1.917000      14.234401
                         11       1    1fy3              1.917000       6.365818
                         11       1    1fy2z             1.917000      14.234401
                         11       1    1fyz2             1.917000      14.234401
                         11       1    1fz3              1.917000       6.365818

     AE Potential information for                                            ALL

       Description:                                       All-electron potential
                                          Krack, Parrinello, PCCP 2, 2105 (2000)

       Gaussian exponent of the core charge distribution:              10.470541
       Electronic configuration (s p d ...):                           4   5   0

  2. Atomic kind: H                                     Number of atoms:       1

     Orbital Basis Set                                                 def2-TZVP

       Number of orbital shell sets:                                           4
       Number of orbital shells:                                               4
       Number of primitive Cartesian functions:                                6
       Number of Cartesian basis functions:                                    6
       Number of spherical basis functions:                                    6
       Norm type:                                                              2

       Normalised Cartesian orbitals:

                        Set   Shell   Orbital            Exponent    Coefficient

                          1       1    1s               34.061341       0.255630
                                                         5.123575       0.461360
                                                         1.164663       0.681121

                          2       1    1s                0.327230       0.308355

                          3       1    1s                0.103072       0.129648

                          4       1    1px               0.800000       1.078456
                          4       1    1py               0.800000       1.078456
                          4       1    1pz               0.800000       1.078456

       Atomic covalent radius [Angstrom]:                                  0.320

       Atomic van der Waals radius [Angstrom]:                             1.090

     The atoms of this atomic kind are PAW atoms (GAPW):
       Hard Gaussian function radius:                                      1.200
       Rho0 radius:                                                        1.200
       Maximum GTO radius used for PAW projector construction:            24.566

     GAPW Soft Basis Set                                          def2-TZVP_soft

       Number of orbital shell sets:                                           4
       Number of orbital shells:                                               4
       Number of primitive Cartesian functions:                                5
       Number of Cartesian basis functions:                                    6
       Number of spherical basis functions:                                    6
       Norm type:                                                              2

       Normalised Cartesian orbitals:

                        Set   Shell   Orbital            Exponent    Coefficient

                          1       1    1s                5.123575       0.461360
                                                         1.164663       0.681121

                          2       1    1s                0.327230       0.308355

                          3       1    1s                0.103072       0.129648

                          4       1    1px               0.800000       1.078456
                          4       1    1py               0.800000       1.078456
                          4       1    1pz               0.800000       1.078456

     AE Potential information for                                            ALL

       Description:                                       All-electron potential
                                          Krack, Parrinello, PCCP 2, 2105 (2000)

       Gaussian exponent of the core charge distribution:              12.500000
       Electronic configuration (s p d ...):                           1   0   0


 MOLECULE KIND INFORMATION


 All atoms are their own molecule, skipping detailed information


 TOTAL NUMBERS AND MAXIMUM NUMBERS

  Total number of            - Atomic kinds:                                   2
                             - Atoms:                                          2
                             - Shell sets:                                    15
                             - Shells:                                        15
                             - Primitive Cartesian functions:                 26
                             - Cartesian basis functions:                     42
                             - Spherical basis functions:                     37

  Maximum angular momentum of the orbital basis functions:                     3


 MODULE QUICKSTEP: ATOMIC COORDINATES IN ANGSTROM

   Atom Kind Element         X             Y             Z       Z(eff)     Mass
      1    1 F     9      3.533795      4.000000      4.000000   9.0000  18.9984
      2    2 H     1      4.466205      4.000000      4.000000   1.0000   1.0079



 SCF PARAMETERS         Density guess:                                    ATOMIC
                        --------------------------------------------------------
                        max_scf:                                              20
                        max_scf_history:                                       0
                        max_diis:                                              4
                        --------------------------------------------------------
                        eps_scf:                                        1.00E-07
                        eps_scf_history:                                0.00E+00
                        eps_diis:                                       1.00E-01
                        eps_eigval:                                     1.00E-05
                        --------------------------------------------------------
                        level_shift [a.u.]:                             0.000000
                        --------------------------------------------------------
                        Outer loop SCF in use 
                        No variables optimised in outer loop
                        eps_scf                                         1.00E-07
                        max_scf                                               50
                        No outer loop optimization
                        step_size                                       5.00E-01

 PW_GRID| Information for grid number                                          1
 PW_GRID| Grid distributed over                                    64 processors
 PW_GRID| Real space group dimensions                                    64    1
 PW_GRID| the grid is blocked:                                                NO
 PW_GRID| Cutoff [a.u.]                                                   1200.0
 PW_GRID| spherical cutoff:                                                   NO
 PW_GRID|   Bounds   1           -120     119                Points:         240
 PW_GRID|   Bounds   2           -120     119                Points:         240
 PW_GRID|   Bounds   3           -120     119                Points:         240
 PW_GRID| Volume element (a.u.^3)  0.2499E-03     Volume (a.u.^3)      3455.1473
 PW_GRID| Grid span                                                    FULLSPACE
 PW_GRID|   Distribution                         Average         Max         Min
 PW_GRID|   G-Vectors                           216000.0      216000      216000
 PW_GRID|   G-Rays                                 900.0         900         900
 PW_GRID|   Real Space Points                   216000.0      230400      172800

 PW_GRID| Information for grid number                                          2
 PW_GRID| Number of the reference grid                                         1
 PW_GRID| Grid distributed over                                    64 processors
 PW_GRID| Real space group dimensions                                    64    1
 PW_GRID| the grid is blocked:                                                NO
 PW_GRID| Cutoff [a.u.]                                                    600.0
 PW_GRID| spherical cutoff:                                                   NO
 PW_GRID|   Bounds   1            -90      89                Points:         180
 PW_GRID|   Bounds   2            -90      89                Points:         180
 PW_GRID|   Bounds   3            -90      89                Points:         180
 PW_GRID| Volume element (a.u.^3)  0.5924E-03     Volume (a.u.^3)      3455.1473
 PW_GRID| Grid span                                                    FULLSPACE
 PW_GRID|   Distribution                         Average         Max         Min
 PW_GRID|   G-Vectors                            91125.0       91440       90720
 PW_GRID|   G-Rays                                 506.2         508         504
 PW_GRID|   Real Space Points                    91125.0       97200       64800

 PW_GRID| Information for grid number                                          3
 PW_GRID| Number of the reference grid                                         2
 PW_GRID| Grid distributed over                                    64 processors
 PW_GRID| Real space group dimensions                                    64    1
 PW_GRID| the grid is blocked:                                                NO
 PW_GRID| Cutoff [a.u.]                                                    200.0
 PW_GRID| spherical cutoff:                                                   NO
 PW_GRID|   Bounds   1            -50      49                Points:         100
 PW_GRID|   Bounds   2            -50      49                Points:         100
 PW_GRID|   Bounds   3            -50      49                Points:         100
 PW_GRID| Volume element (a.u.^3)  0.3455E-02     Volume (a.u.^3)      3455.1473
 PW_GRID| Grid span                                                    FULLSPACE
 PW_GRID|   Distribution                         Average         Max         Min
 PW_GRID|   G-Vectors                            15625.0       15800       15500
 PW_GRID|   G-Rays                                 156.2         158         155
 PW_GRID|   Real Space Points                    15625.0       20000       10000

 PW_GRID| Information for grid number                                          4
 PW_GRID| Number of the reference grid                                         2
 PW_GRID| Grid distributed over                                    64 processors
 PW_GRID| Real space group dimensions                                     8    8
 PW_GRID| the grid is blocked:                                                NO
 PW_GRID| Cutoff [a.u.]                                                     66.7
 PW_GRID| spherical cutoff:                                                   NO
 PW_GRID|   Bounds   1            -30      29                Points:          60
 PW_GRID|   Bounds   2            -30      29                Points:          60
 PW_GRID|   Bounds   3            -30      29                Points:          60
 PW_GRID| Volume element (a.u.^3)  0.1600E-01     Volume (a.u.^3)      3455.1473
 PW_GRID| Grid span                                                    FULLSPACE
 PW_GRID|   Distribution                         Average         Max         Min
 PW_GRID|   G-Vectors                             3375.0        3540        3240
 PW_GRID|   G-Rays                                  56.2          59          54
 PW_GRID|   Real Space Points                     3375.0        3840        2940

 PW_GRID| Information for grid number                                          5
 PW_GRID| Number of the reference grid                                         2
 PW_GRID| Grid distributed over                                    64 processors
 PW_GRID| Real space group dimensions                                     8    8
 PW_GRID| the grid is blocked:                                                NO
 PW_GRID| Cutoff [a.u.]                                                     22.2
 PW_GRID| spherical cutoff:                                                   NO
 PW_GRID|   Bounds   1            -18      17                Points:          36
 PW_GRID|   Bounds   2            -18      17                Points:          36
 PW_GRID|   Bounds   3            -18      17                Points:          36
 PW_GRID| Volume element (a.u.^3)  0.7406E-01     Volume (a.u.^3)      3455.1473
 PW_GRID| Grid span                                                    FULLSPACE
 PW_GRID|   Distribution                         Average         Max         Min
 PW_GRID|   G-Vectors                              729.0         792         684
 PW_GRID|   G-Rays                                  20.2          22          19
 PW_GRID|   Real Space Points                      729.0         900         576

 PW_GRID| Information for grid number                                          6
 PW_GRID| Number of the reference grid                                         2
 PW_GRID| Grid distributed over                                    64 processors
 PW_GRID| Real space group dimensions                                     8    8
 PW_GRID| the grid is blocked:                                                NO
 PW_GRID| Cutoff [a.u.]                                                      7.4
 PW_GRID| spherical cutoff:                                                   NO
 PW_GRID|   Bounds   1            -10       9                Points:          20
 PW_GRID|   Bounds   2            -10       9                Points:          20
 PW_GRID|   Bounds   3            -10       9                Points:          20
 PW_GRID| Volume element (a.u.^3)  0.4319         Volume (a.u.^3)      3455.1473
 PW_GRID| Grid span                                                    FULLSPACE
 PW_GRID|   Distribution                         Average         Max         Min
 PW_GRID|   G-Vectors                              125.0         140         100
 PW_GRID|   G-Rays                                   6.2           7           5
 PW_GRID|   Real Space Points                      125.0         180          80

 POISSON| Solver                                          Martyna-Tuckerman (MT)
 POISSON| MT| Alpha                                                        7.000
 POISSON| MT| Relative cutoff                                                2.0
 POISSON| Periodicity                                                       NONE

 RS_GRID| Information for grid number                                          2
 RS_GRID|   Bounds   1            -90      89                Points:         180
 RS_GRID|   Bounds   2            -90      89                Points:         180
 RS_GRID|   Bounds   3            -90      89                Points:         180
 RS_GRID| Real space distribution over                                  8 groups
 RS_GRID| Real space distribution along direction                              2
 RS_GRID| Border size                                                         36
 RS_GRID| Real space distribution over                                  8 groups
 RS_GRID| Real space distribution along direction                              3
 RS_GRID| Border size                                                         36
 RS_GRID|   Distribution                         Average         Max         Min
 RS_GRID|   Planes                                  94.5          95          94
 RS_GRID|   Distribution                         Average         Max         Min
 RS_GRID|   Planes                                  94.5          95          94

 RS_GRID| Information for grid number                                          3
 RS_GRID|   Bounds   1            -50      49                Points:         100
 RS_GRID|   Bounds   2            -50      49                Points:         100
 RS_GRID|   Bounds   3            -50      49                Points:         100
 RS_GRID| Real space fully replicated
 RS_GRID| Group size                                                           1

 RS_GRID| Information for grid number                                          4
 RS_GRID|   Bounds   1            -30      29                Points:          60
 RS_GRID|   Bounds   2            -30      29                Points:          60
 RS_GRID|   Bounds   3            -30      29                Points:          60
 RS_GRID| Real space fully replicated
 RS_GRID| Group size                                                           1

 RS_GRID| Information for grid number                                          5
 RS_GRID|   Bounds   1            -18      17                Points:          36
 RS_GRID|   Bounds   2            -18      17                Points:          36
 RS_GRID|   Bounds   3            -18      17                Points:          36
 RS_GRID| Real space fully replicated
 RS_GRID| Group size                                                           1

 RS_GRID| Information for grid number                                          6
 RS_GRID|   Bounds   1            -10       9                Points:          20
 RS_GRID|   Bounds   2            -10       9                Points:          20
 RS_GRID|   Bounds   3            -10       9                Points:          20
 RS_GRID| Real space fully replicated
 RS_GRID| Group size                                                           1

 Number of electrons:                                                         10
 Number of occupied orbitals:                                                  5
 Number of molecular orbitals:                                                 5

 Number of orbital functions:                                                 37
 Number of independent orbital functions:                                     37

 Extrapolation method: initial_guess

 Atomic guess: The first density matrix is obtained in terms of atomic orbitals
               and electronic configurations assigned to each atomic kind

 Guess for atomic kind: F

 Electronic structure
    Total number of core electrons                                          0.00
    Total number of valence electrons                                       9.00
    Total number of electrons                                               9.00
    Multiplicity                                                   not specified
    S      2.00  2.00
    P      5.00
 

 *******************************************************************************
                  Iteration          Convergence                     Energy [au]
 *******************************************************************************
                          1         1.44247                     -98.919302612217
                          2         1.78049                     -98.865141798239
                          3        0.110199                     -99.088444290991
                          4        0.403602E-02                 -99.089572347862
                          5        0.204248E-03                 -99.089573426278
                          6        0.420105E-05                 -99.089573429432
                          7        0.481056E-05                 -99.089573429432
                          8        0.141011E-07                 -99.089573429434

 Energy components [Hartree]           Total Energy ::          -99.089573429434
                                        Band Energy ::          -52.587484361159
                                     Kinetic Energy ::           98.657649928640
                                   Potential Energy ::         -197.747223358073
                                      Virial (-V/T) ::            2.004378003136
                                        Core Energy ::         -139.033521023864
                                          XC Energy ::           -9.626910165406
                                     Coulomb Energy ::           49.570857759837

 Orbital energies  State     L     Occupation   Energy[a.u.]          Energy[eV]

                       1     0          2.000     -24.185291         -658.115231
                       2     0          2.000      -1.081754          -29.436032
 
                       1     1          5.000      -0.410679          -11.175140
 

 Total Electron Density at R=0:                                       430.543562

 Guess for atomic kind: H

 Electronic structure
    Total number of core electrons                                          0.00
    Total number of valence electrons                                       1.00
    Total number of electrons                                               1.00
    Multiplicity                                                   not specified
    S      1.00
 

 *******************************************************************************
                  Iteration          Convergence                     Energy [au]
 *******************************************************************************
                          1        0.917598E-02                  -0.444895232610
                          2        0.101733E-02                  -0.444969959338
                          3        0.739292E-04                  -0.444971980690
                          4        0.601377E-07                  -0.444971989573

 Energy components [Hartree]           Total Energy ::           -0.444971989573
                                        Band Energy ::           -0.230448725171
                                     Kinetic Energy ::            0.428990089350
                                   Potential Energy ::           -0.873962078923
                                      Virial (-V/T) ::            2.037254707321
                                        Core Energy ::           -0.496265746842
                                          XC Energy ::           -0.234272986041
                                     Coulomb Energy ::            0.285566743311

 Orbital energies  State     L     Occupation   Energy[a.u.]          Energy[eV]

                       1     0          1.000      -0.230449           -6.270829
 

 Total Electron Density at R=0:                                         0.247098
 Re-scaling the density matrix to get the right number of electrons
                  # Electrons              Trace(P)               Scaling factor
                           10                10.000                        1.000


 SCF WAVEFUNCTION OPTIMIZATION

  ----------------------------------- OT ---------------------------------------
  Minimizer      : DIIS                : direct inversion
                                         in the iterative subspace
                                         using   7 DIIS vectors
                                         safer DIIS on
  Preconditioner : FULL_ALL            : diagonalization, state selective
  Precond_solver : DEFAULT
  stepsize       :    0.15000000                  energy_gap     :    0.08000000
  eps_taylor     :   0.10000E-15                  max_taylor     :             4
  ----------------------------------- OT ---------------------------------------

  Step     Update method      Time    Convergence         Total energy    Change
  ------------------------------------------------------------------------------
     1 OT DIIS     0.15E+00   24.7     0.31070827       -99.0939668536 -9.91E+01
     2 OT DIIS     0.15E+00   17.1     0.25651603       -99.7047870858 -6.11E-01
     3 OT DIIS     0.15E+00   15.6     0.06811563      -100.2883005034 -5.84E-01
     4 OT DIIS     0.15E+00   16.8     0.03106183      -100.3708997359 -8.26E-02
     5 OT DIIS     0.15E+00   15.9     0.01253146      -100.3867172569 -1.58E-02
     6 OT DIIS     0.15E+00   17.7     0.00781320      -100.3892520721 -2.53E-03
     7 OT DIIS     0.15E+00   17.5     0.00285547      -100.3910400667 -1.79E-03
     8 OT DIIS     0.15E+00   17.6     0.00084196      -100.3912551625 -2.15E-04
     9 OT DIIS     0.15E+00   17.3     0.00019561      -100.3912783235 -2.32E-05
    10 OT DIIS     0.15E+00   17.8     0.00009221      -100.3912792653 -9.42E-07
    11 OT DIIS     0.15E+00   17.2     0.00004043      -100.3912794525 -1.87E-07
    12 OT DIIS     0.15E+00   17.7     0.00000951      -100.3912794954 -4.29E-08
    13 OT DIIS     0.15E+00   17.7     0.00000249      -100.3912794979 -2.45E-09
    14 OT DIIS     0.15E+00   16.8     0.00000061      -100.3912794980 -1.22E-10
    15 OT DIIS     0.15E+00   16.5     0.00000023      -100.3912794980 -5.23E-12
    16 OT DIIS     0.15E+00   17.2     0.00000005      -100.3912794980  4.60E-12

  *** SCF run converged in    16 steps ***


  Electronic density on regular grids:         -7.2414722351        2.7585277649
  Core density on regular grids:               10.0000000000        0.0000000000
  Hard and soft densities (Lebedev):          -11.7916908293       -9.0331633607
  Total Rho_soft + Rho1_hard - Rho1_soft       -9.9999997038
  Total charge density (r-space):               0.0000002962
  Total Rho_soft + Rho0_soft (g-space):         0.0000000489

  Overlap energy of the core charge distribution:               0.00000001385988
  Self energy of the core charge distribution:               -105.97386364366757
  Core Hamiltonian energy:                                     -4.15062706834189
  Hartree energy:                                              21.80098044341013
  Exchange-correlation energy:                                 -4.15302123889566

  GAPW| Exc from hard and soft atomic rho1:                    -6.57054799648232
  GAPW| local Eh = 1 center integrals:                         -1.34420000789766

  Total energy:                                              -100.39127949801509

  outer SCF iter =    1 RMS gradient =   0.53E-07 energy =       -100.3912794980
  outer SCF loop converged in   1 iterations or   16 steps


 !-----------------------------------------------------------------------------!
                     Mulliken Population Analysis

 #  Atom  Element  Kind  Atomic population                           Net charge
       1     F        1          9.390161                             -0.390161
       2     H        2          0.609839                              0.390161
 # Total charge                             10.000000                  0.000000

 !-----------------------------------------------------------------------------!

 !-----------------------------------------------------------------------------!
                           Hirshfeld Charges

  #Atom  Element  Kind  Ref Charge     Population                    Net charge
      1       F      1       9.000          9.643                        -0.643
      2       H      2       1.000          0.357                         0.643

  Total Charge                                                            0.000
 !-----------------------------------------------------------------------------!

 *******************************************************************************
 **                                                                           **
 **         ######## #######   #######   ######## #######  ########           **
 **            ##    ##     ## ##     ## ##       ##   ##     ##              **
 **            ##    ##     ## ##     ## ######   #######     ##              **
 **            ##    ##     ## ##     ## ##       ##          ##              **
 **            ##    #######   #######   ##       ##          ##              **
 **                                                                           **
 *******************************************************************************
 KERNEL|                                                                    FULL
 FUNCTIONAL| PBE:
 FUNCTIONAL| J.P.Perdew, K.Burke, M.Ernzerhof, Phys. Rev. Letter, vol. 77, n 18,
 FUNCTIONAL|  pp. 3865-3868, (1996) {spin unpolarized}                          
 KERNEL| Spin symmetry of excitations                                    Triplet
 TDDFPT| Number of states calculated                                          10
 TDDFPT| Number of Davidson iterations                                        20
 TDDFPT| Davidson iteration convergence                                0.100E-07
 TDDFPT| Max. number of Krylov space vectors                                  60
 TDDFPT| Molecular Orbitals:        Spin       AOs       Occ      Virt     Total
 TDDFPT|                               1        37         5        32        37

 *******************************************************************************
 **                                                                           **
 **                            ####### ####### #######                        **
 **                        #   ##      ##   ## ##                             **
 **                       ###  ######  ##   ## ##                             **
 **                        #       ##  ##   ## ##                             **
 **                            ######  ####### #######                        **
 **                 Based on the xas module from Augustin Bussy               **
 *******************************************************************************
 
 -------------------------------------------------------------------------------
 -                      TDDFPT TRIPLET ENERGIES                                 -
 -------------------------------------------------------------------------------
 
 -------------------------------------------------------------------------------
 -                            TDDFPT Initial Guess                             -
 -------------------------------------------------------------------------------
          State         Occupied      ->      Virtual          Excitation
          number         orbital              orbital          energy (eV)
 -------------------------------------------------------------------------------
             1                5                    6              9.13886
             2                4                    6              9.13886
             3                3                    6             12.98260
             4                5                    7             18.69487
             5                4                    7             18.69487
             6                3                    7             22.53860
             7                5                    8             22.67934
             8                4                    8             22.67934
             9                5                    9             22.67934
            10                4                    9             22.67934

      Number of active states:                                        160
 -------------------------------------------------------------------------------
 
 -------------------------------------------------------------------------------
 -                      TDDFPT WAVEFUNCTION OPTIMIZATION                       -
 -------------------------------------------------------------------------------

          Step            Time         Convergence           Conv. states
 -------------------------------------------------------------------------------

    State    Exc. energy (eV)      Convergence (eV)
        1       8.8341716            -3.0469E-01
        2       8.8341716            -3.0469E-01
        3      12.1349249            -8.4767E-01
        4      18.2980263            -3.9684E-01
        5      18.2980264            -3.9684E-01
        6      21.0335557            -1.5050E+00
        7      21.3439774            -1.3354E+00
        8      21.7463902            -9.3295E-01
        9      21.7463931            -9.3295E-01
       10      22.6793444            -3.3165E-08
 
             1            87.8          5.5309E-02                      1

    State    Exc. energy (eV)      Convergence (eV)
        1       8.8160164            -1.8155E-02
        2       8.8160166            -1.8155E-02
        3      12.0970606            -3.7864E-02
        4      18.2682492            -2.9777E-02
        5      18.2682858            -2.9741E-02
        6      20.9032513            -1.3030E-01
        7      21.2965541            -4.7423E-02
        8      21.7226400            -2.3750E-02
        9      21.7226430            -2.3750E-02
       10      22.3593522            -3.1999E-01
 
             2            92.8          1.1759E-02                      0

    State    Exc. energy (eV)      Convergence (eV)
        1       8.8160131            -3.3248E-06
        2       8.8160131            -3.4823E-06
        3      12.0970220            -3.8514E-05
        4      18.2682010            -4.8172E-05
        5      18.2682011            -8.4746E-05
        6      20.9028430            -4.0827E-04
        7      21.2964524            -1.0167E-04
        8      21.7226391            -8.5345E-07
        9      21.7226421            -8.5388E-07
       10      22.3420584            -1.7294E-02
 
             3            95.9          6.3553E-04                      0

    State    Exc. energy (eV)      Convergence (eV)
        1       8.8160131            -1.1695E-09
        2       8.8160131            -7.8320E-10
        3      12.0970220            -1.1818E-08
        4      18.2682010            -4.6233E-08
        5      18.2682010            -6.4973E-08
        6      20.9028427            -2.5596E-07
        7      21.2964522            -2.3495E-07
        8      21.7226391            -7.3294E-10
        9      21.7226421            -7.3309E-10
       10      22.3420546            -3.7680E-06
 
             4           101.6          1.3847E-07                      9

    State    Exc. energy (eV)      Convergence (eV)
        1       8.8160131            -1.7673E-13
        2       8.8160131            -6.1932E-14
        3      12.0970220            -1.3957E-12
        4      18.2682010            -9.4046E-12
        5      18.2682010            -2.1933E-12
        6      20.9028427            -1.4330E-10
        7      21.2964522            -4.3262E-11
        8      21.7226391            -3.0211E-14
        9      21.7226421            -3.3232E-14
       10      22.3420546            -2.5274E-10
 
             5            65.4          9.2881E-12                     10
 ------------------------- Restart Davidson iterations -------------------------

    State    Exc. energy (eV)      Convergence (eV)
        1       8.8160131             3.0211E-15
        2       8.8160131             1.9637E-14
        3      12.0970220            -9.0632E-15
        4      18.2682010             3.0211E-15
        5      18.2682010             3.3232E-14
        6      20.9028427             1.5105E-14
        7      21.2964522             1.2084E-14
        8      21.7226391            -6.0421E-15
        9      21.7226421            -6.0421E-15
       10      22.3420546             1.8126E-14
 
             6            63.7          1.2212E-15                     10
 
 -------------------------------------------------------------------------------
 -  TDDFPT run converged in 6 iteration(s) 
 -------------------------------------------------------------------------------

 R-TDDFPT states of multiplicity 3
 Transition dipoles calculated using length formulation

         State    Excitation        Transition dipole (a.u.)        Oscillator
         number   energy (eV)       x           y           z     strength (a.u.)
         ------------------------------------------------------------------------
 TDDFPT|      1       8.81601   0.0000E+00  0.0000E+00  0.0000E+00   0.00000E+00
 TDDFPT|      2       8.81601   0.0000E+00  0.0000E+00  0.0000E+00   0.00000E+00
 TDDFPT|      3      12.09702   0.0000E+00  0.0000E+00  0.0000E+00   0.00000E+00
 TDDFPT|      4      18.26820   0.0000E+00  0.0000E+00  0.0000E+00   0.00000E+00
 TDDFPT|      5      18.26820   0.0000E+00  0.0000E+00  0.0000E+00   0.00000E+00
 TDDFPT|      6      20.90284   0.0000E+00  0.0000E+00  0.0000E+00   0.00000E+00
 TDDFPT|      7      21.29645   0.0000E+00  0.0000E+00  0.0000E+00   0.00000E+00
 TDDFPT|      8      21.72264   0.0000E+00  0.0000E+00  0.0000E+00   0.00000E+00
 TDDFPT|      9      21.72264   0.0000E+00  0.0000E+00  0.0000E+00   0.00000E+00
 TDDFPT|     10      22.34205   0.0000E+00  0.0000E+00  0.0000E+00   0.00000E+00

 TDDFPT : CheckSum  =  0.211193E+01
 
 -------------------------------------------------------------------------------
 -                            Excitation analysis                              -
 -------------------------------------------------------------------------------
        State             Occupied              Virtual             Excitation
        number             orbital              orbital             amplitude
 -------------------------------------------------------------------------------
             1   8.81601 eV
                                 5                    6              -0.999479
             2   8.81601 eV
                                 4                    6               0.999479
             3  12.09702 eV
                                 3                    6              -0.994791
                                 3                    7              -0.093496
             4  18.26820 eV
                                 5                    7              -0.998503
             5  18.26820 eV
                                 4                    7              -0.998503
             6  20.90284 eV
                                 3                    7               0.703047
                                 4                    8               0.492579
                                 5                    9              -0.492579
                                 3                   10               0.091054
                                 3                    6              -0.079765
                                 2                    6              -0.058235
             7  21.29645 eV
                                 3                    7               0.700039
                                 4                    8              -0.502574
                                 5                    9               0.502574
                                 3                    6              -0.055960
             8  21.72264 eV
                                 5                    9              -0.580410
                                 4                    8              -0.580410
                                 5                    8               0.403736
                                 4                    9              -0.403736
             9  21.72264 eV
                                 5                    8              -0.580410
                                 4                    9               0.580410
                                 5                    9              -0.403736
                                 4                    8              -0.403736
            10  22.34205 eV
                                 4                   10               0.993641
                                 3                    8               0.103720
 -------------------------------------------------------------------------------
 
 -------------------------------------------------------------------------------
 -                            Natural Orbital analysis                         -
 -------------------------------------------------------------------------------
   STATE NR.      1             8.81601 eV
     Particle-Hole state: 1   Spin:1     Eigenvalue: 0.99974   Sum Eigv: 0.99974
   STATE NR.      2             8.81601 eV
     Particle-Hole state: 1   Spin:1     Eigenvalue: 0.99974   Sum Eigv: 0.99974
   STATE NR.      3            12.09702 eV
     Particle-Hole state: 1   Spin:1     Eigenvalue: 0.99943   Sum Eigv: 0.99943
   STATE NR.      4            18.26820 eV
     Particle-Hole state: 1   Spin:1     Eigenvalue: 0.99870   Sum Eigv: 0.99870
   STATE NR.      5            18.26820 eV
     Particle-Hole state: 1   Spin:1     Eigenvalue: 0.99870   Sum Eigv: 0.99870
   STATE NR.      6            20.90284 eV
     Particle-Hole state: 1   Spin:1     Eigenvalue: 0.50978   Sum Eigv: 0.50978
     Particle-Hole state: 2   Spin:1     Eigenvalue: 0.24282   Sum Eigv: 0.75260
     Particle-Hole state: 3   Spin:1     Eigenvalue: 0.24282   Sum Eigv: 0.99541
   STATE NR.      7            21.29645 eV
     Particle-Hole state: 1   Spin:1     Eigenvalue: 0.49435   Sum Eigv: 0.49435
     Particle-Hole state: 2   Spin:1     Eigenvalue: 0.25269   Sum Eigv: 0.74704
     Particle-Hole state: 3   Spin:1     Eigenvalue: 0.25269   Sum Eigv: 0.99974
   STATE NR.      8            21.72264 eV
     Particle-Hole state: 1   Spin:1     Eigenvalue: 0.49996   Sum Eigv: 0.49996
     Particle-Hole state: 2   Spin:1     Eigenvalue: 0.49996   Sum Eigv: 0.99993
   STATE NR.      9            21.72264 eV
     Particle-Hole state: 1   Spin:1     Eigenvalue: 0.49996   Sum Eigv: 0.49996
     Particle-Hole state: 2   Spin:1     Eigenvalue: 0.49996   Sum Eigv: 0.99993
   STATE NR.     10            22.34205 eV
     Particle-Hole state: 1   Spin:1     Eigenvalue: 0.98903   Sum Eigv: 0.98903
 -------------------------------------------------------------------------------
 
                       triplet excitations finished                             
                                                                                
 -------------------------------------------------------------------------------
 -                      TDDFPT SINGLET ENERGIES                                -
 -------------------------------------------------------------------------------
 
 -------------------------------------------------------------------------------
 -                            TDDFPT Initial Guess                             -
 -------------------------------------------------------------------------------
          State         Occupied      ->      Virtual          Excitation
          number         orbital              orbital          energy (eV)
 -------------------------------------------------------------------------------
             1                5                    6              9.13886
             2                4                    6              9.13886
             3                3                    6             12.98260
             4                5                    7             18.69487
             5                4                    7             18.69487
             6                3                    7             22.53860
             7                5                    8             22.67934
             8                4                    8             22.67934
             9                5                    9             22.67934
            10                4                    9             22.67934

      Number of active states:                                        160
 -------------------------------------------------------------------------------
 
 -------------------------------------------------------------------------------
 -                      TDDFPT WAVEFUNCTION OPTIMIZATION                       -
 -------------------------------------------------------------------------------

          Step            Time         Convergence           Conv. states
 -------------------------------------------------------------------------------

    State    Exc. energy (eV)      Convergence (eV)
        1       9.4013513             2.6249E-01
        2       9.4013513             2.6249E-01
        3      14.0382322             1.0556E+00
        4      18.9834771             2.8861E-01
        5      18.9834771             2.8861E-01
        6      22.6793444             1.4074E-01
        7      22.8266954             1.4735E-01
        8      22.8267015             1.4736E-01
        9      24.3458415             1.6665E+00
       10      34.2165724             1.1537E+01
 
             1            93.1          4.2399E-01                      0

    State    Exc. energy (eV)      Convergence (eV)
        1       9.3758489            -2.5502E-02
        2       9.3758601            -2.5491E-02
        3      13.9377619            -1.0047E-01
        4      18.9267121            -5.6765E-02
        5      18.9269107            -5.6566E-02
        6      22.6793444            -9.0632E-15
        7      22.8173762            -9.3191E-03
        8      22.8173825            -9.3190E-03
        9      23.0780405            -1.2678E+00
       10      23.9657542            -1.0251E+01
 
             2            97.5          3.7671E-01                      1

    State    Exc. energy (eV)      Convergence (eV)
        1       9.3757860            -6.2922E-05
        2       9.3757860            -7.4090E-05
        3      13.9375205            -2.4138E-04
        4      18.9264558            -2.5631E-04
        5      18.9264564            -4.5427E-04
        6      22.6793444             9.0632E-15
        7      22.8173751            -1.1155E-06
        8      22.8173814            -1.1153E-06
        9      23.0042959            -7.3745E-02
       10      23.7824232            -1.8333E-01
 
             3            99.0          6.7373E-03                      1

    State    Exc. energy (eV)      Convergence (eV)
        1       9.3757860            -3.0041E-08
        2       9.3757860            -6.4922E-09
        3      13.9375203            -2.0101E-07
        4      18.9264558            -5.9629E-08
        5      18.9264558            -6.2212E-07
        6      22.6793444            -6.0421E-15
        7      22.8173751            -7.5406E-12
        8      22.8173814            -7.2838E-12
        9      23.0042880            -7.9099E-06
       10      23.0075738            -7.7485E-01
 
             4           100.3          2.8475E-02                      7

    State    Exc. energy (eV)      Convergence (eV)
        1       9.3757860            -2.0679E-12
        2       9.3757860            -1.4652E-13
        3      13.9375203            -3.2804E-10
        4      18.9264558            -7.3370E-11
        5      18.9264558            -1.0362E-12
        6      22.6793444            -4.2295E-14
        7      22.8173751            -1.4924E-12
        8      22.8173814            -5.5588E-13
        9      23.0042880            -1.6126E-10
       10      23.0042880            -3.2857E-03
 
             5           104.0          1.2075E-04                      9
 ------------------------- Restart Davidson iterations -------------------------

    State    Exc. energy (eV)      Convergence (eV)
        1       9.3757860             2.1147E-14
        2       9.3757860             3.0211E-15
        3      13.9375203             1.2084E-13
        4      18.9264558            -6.0421E-15
        5      18.9264558            -1.8126E-14
        6      22.6793444             7.5527E-14
        7      22.8173751             6.5557E-13
        8      22.8173814             4.5316E-14
        9      23.0042880             4.5316E-14
       10      23.0042880             5.7400E-14
 
             6            67.5          2.4092E-14                     10
 
 -------------------------------------------------------------------------------
 -  TDDFPT run converged in 6 iteration(s) 
 -------------------------------------------------------------------------------

 R-TDDFPT states of multiplicity 1
 Transition dipoles calculated using length formulation

         State    Excitation        Transition dipole (a.u.)        Oscillator
         number   energy (eV)       x           y           z     strength (a.u.)
         ------------------------------------------------------------------------
 TDDFPT|      1       9.37579   1.7315E-08  2.8880E-01  1.4926E-01   2.42762E-02
 TDDFPT|      2       9.37579  -6.9046E-10  1.4926E-01 -2.8880E-01   2.42762E-02
 TDDFPT|      3      13.93752  -8.4440E-01  2.1458E-08  1.4946E-08   2.43469E-01
 TDDFPT|      4      18.92646   9.3174E-10  3.0202E-01  1.5649E-01   5.36501E-02
 TDDFPT|      5      18.92646   5.2862E-10 -1.5649E-01  3.0202E-01   5.36501E-02
 TDDFPT|      6      22.67934  -1.9573E-11  8.5676E-09 -1.5730E-08   1.78261E-16
 TDDFPT|      7      22.81738  -2.8457E-10 -1.7159E-08 -2.8377E-08   6.14796E-16
 TDDFPT|      8      22.81738  -8.2582E-11 -3.0824E-08  1.5510E-08   6.65617E-16
 TDDFPT|      9      23.00429   3.4736E-10 -9.8008E-02  1.7398E-01   2.24722E-02
 TDDFPT|     10      23.00429   2.2987E-09 -1.7398E-01 -9.8008E-02   2.24722E-02

 TDDFPT : CheckSum  =  0.223553E+01
 
 -------------------------------------------------------------------------------
 -                            Excitation analysis                              -
 -------------------------------------------------------------------------------
        State             Occupied              Virtual             Excitation
        number             orbital              orbital             amplitude
 -------------------------------------------------------------------------------
             1   9.37579 eV
                                 5                    6              -0.999556
             2   9.37579 eV
                                 4                    6               0.999556
             3  13.93752 eV
                                 3                    6              -0.980220
                                 3                    7               0.141738
                                 4                    8               0.087412
                                 5                    9              -0.087412
             4  18.92646 eV
                                 5                    7               0.999263
             5  18.92646 eV
                                 4                    7               0.999263
             6  22.67934 eV
                                 5                    8               0.707077
                                 4                    9               0.707077
             7  22.81738 eV
                                 4                    8               0.580452
                                 5                    9               0.580452
                                 4                    9               0.403757
                                 5                    8              -0.403757
             8  22.81738 eV
                                 4                    9              -0.580452
                                 5                    8               0.580452
                                 5                    9               0.403757
                                 4                    8               0.403757
             9  23.00429 eV
                                 4                   10               0.997379
            10  23.00429 eV
                                 5                   10              -0.997379
 -------------------------------------------------------------------------------
 
 -------------------------------------------------------------------------------
 -                            Natural Orbital analysis                         -
 -------------------------------------------------------------------------------
   STATE NR.      1             9.37579 eV
     Particle-Hole state: 1   Spin:1     Eigenvalue: 0.99979   Sum Eigv: 0.99979
   STATE NR.      2             9.37579 eV
     Particle-Hole state: 1   Spin:1     Eigenvalue: 0.99979   Sum Eigv: 0.99979
   STATE NR.      3            13.93752 eV
     Particle-Hole state: 1   Spin:1     Eigenvalue: 0.98331   Sum Eigv: 0.98331
   STATE NR.      4            18.92646 eV
     Particle-Hole state: 1   Spin:1     Eigenvalue: 0.99923   Sum Eigv: 0.99923
   STATE NR.      5            18.92646 eV
     Particle-Hole state: 1   Spin:1     Eigenvalue: 0.99923   Sum Eigv: 0.99923
   STATE NR.      6            22.67934 eV
     Particle-Hole state: 1   Spin:1     Eigenvalue: 0.50000   Sum Eigv: 0.50000
     Particle-Hole state: 2   Spin:1     Eigenvalue: 0.50000   Sum Eigv: 1.00000
   STATE NR.      7            22.81738 eV
     Particle-Hole state: 1   Spin:1     Eigenvalue: 0.49996   Sum Eigv: 0.49996
     Particle-Hole state: 2   Spin:1     Eigenvalue: 0.49996   Sum Eigv: 0.99992
   STATE NR.      8            22.81738 eV
     Particle-Hole state: 1   Spin:1     Eigenvalue: 0.49996   Sum Eigv: 0.49996
     Particle-Hole state: 2   Spin:1     Eigenvalue: 0.49996   Sum Eigv: 0.99992
   STATE NR.      9            23.00429 eV
     Particle-Hole state: 1   Spin:1     Eigenvalue: 0.99827   Sum Eigv: 0.99827
   STATE NR.     10            23.00429 eV
     Particle-Hole state: 1   Spin:1     Eigenvalue: 0.99827   Sum Eigv: 0.99827
 -------------------------------------------------------------------------------
 
 -------------------------------------------------------------------------------
 -                         START SOC CALCULATIONS                              -
 -------------------------------------------------------------------------------
Starting from TDDFPT Excited States:
      STATE          SINGLET/eV         TRIPLET/eV
        1              9.37579         8.81601
        2              9.37579         8.81601
        3             13.93752        12.09702
        4             18.92646        18.26820
        5             18.92646        18.26820
        6             22.67934        20.90284
        7             22.81738        21.29645
        8             22.81738        21.72264
        9             23.00429        21.72264
       10             23.00429        22.34205
Starting restricted closed shell:

 *** WARNING in qs_tddfpt2_soc.F:1221 :: start building Dipole ***

Diagonlzing SOC-Matrix
Ground state stabilisation:            8.7995063238

 *** WARNING in qs_tddfpt2_soc.F:1018 :: DEBUG OSC ***

------------------------------------------------------------------------------
-                         SOC CORRECTED SPECTRUM                             -
------------------------------------------------------------------------------
-     STATE   SOC-corrected exc. energies [eV]  Oscillator strengths [a.u.]  -
------------------------------------------------------------------------------
        1                    8.79951         0.00000
        2                    8.79951         0.00000
        3                    8.81551         0.00002
        4                    8.81551         0.00002
        5                    8.83248         0.00000
        6                    8.83255         0.00002
        7                    9.37624         0.02426
        8                    9.37624         0.02426
        9                   12.09718         0.00000
       10                   12.09719         0.00000
       11                   12.09720         0.00000
       12                   13.93764         0.24346
       13                   18.25171         0.00000
       14                   18.25171         0.00000
       15                   18.26775         0.00003
       16                   18.26775         0.00003
       17                   18.28461         0.00000
       18                   18.28478         0.00000
       19                   18.92681         0.05361
       20                   18.92681         0.05361
       21                   20.90297         0.00000
       22                   20.90297         0.00000
[...]
 -                                                                             -
 -------------------------------------------------------------------------------
 COUNTER                                    TOTAL       BLAS       SMM       ACC
 flops     6 x    32 x     6                 9216       0.0%    100.0%      0.0%
 flops     6 x     5 x     5                24300       0.0%    100.0%      0.0%
 flops     5 x     5 x     5                34500       0.0%    100.0%      0.0%
 flops    31 x    32 x     6                47616       0.0%    100.0%      0.0%
 flops     6 x    32 x    31                47616       0.0%    100.0%      0.0%
 flops     6 x     6 x     5                92520       0.0%    100.0%      0.0%
 flops    31 x     5 x     5               125550       0.0%    100.0%      0.0%
 flops    31 x    32 x    31               246016       0.0%    100.0%      0.0%
 flops     6 x     5 x     6               290880       0.0%    100.0%      0.0%
 flops     6 x    31 x     5               478020       0.0%    100.0%      0.0%
 flops     5 x     5 x     6               619500       0.0%    100.0%      0.0%
 flops    31 x     5 x     6              1385700       0.0%    100.0%      0.0%
 flops     6 x     5 x    31              1385700       0.0%    100.0%      0.0%
 flops    31 x    31 x     5              2469770       0.0%    100.0%      0.0%
 flops     5 x     5 x    31              3200750       0.0%    100.0%      0.0%
 flops    31 x     5 x    31              7764880       0.0%    100.0%      0.0%
 flops inhomo. stacks                           0       0.0%      0.0%      0.0%
 flops total                        18.222534E+06       0.0%    100.0%      0.0%
 flops max/rank                     10.267122E+06       0.0%    100.0%      0.0%
 matmuls inhomo. stacks                         0       0.0%      0.0%      0.0%
 matmuls total                               8323       0.0%    100.0%      0.0%
 number of processed stacks                  7387       0.0%    100.0%      0.0%
 average stack size                                     0.0       1.1       0.0
 marketing flops                    18.936766E+06
 -------------------------------------------------------------------------------
 # multiplications                           1194
 max memory usage/rank             637.042688E+06
 # max total images/rank                        1
 # max 3D layers                                1
 # MPI messages exchanged                 1069824
 MPI messages size (bytes):
  total size                        69.055056E+06
  min size                           0.000000E+00
  max size                           7.936000E+03
  average size                      64.548050E+00
 MPI breakdown and total messages size (bytes):
             size <=      128             1024317                        0
       128 < size <=     8192               45507                 69055056
      8192 < size <=    32768                   0                        0
     32768 < size <=   131072                   0                        0
    131072 < size <=  4194304                   0                        0
   4194304 < size <= 16777216                   0                        0
  16777216 < size                               0                        0
 -------------------------------------------------------------------------------
 -                                                                             -
 -                      DBCSR MESSAGE PASSING PERFORMANCE                      -
 -                                                                             -
 -------------------------------------------------------------------------------
 ROUTINE             CALLS      AVE VOLUME [Bytes]
 MP_Bcast               17                     12.
 MP_Allreduce         5025                      8.
 MP_Alltoall         16315                   9342.
 MP_ISend            38204                    263.
 MP_IRecv            38204                     88.
 -------------------------------------------------------------------------------

 -------------------------------------------------------------------------------
 -                                                                             -
 -                                DBM STATISTICS                               -
 -                                                                             -
 -------------------------------------------------------------------------------
    M  x    N  x    K                                          COUNT     PERCENT
 -------------------------------------------------------------------------------

 -------------------------------------------------------------------------------
 -                                                                             -
 -                                GRID STATISTICS                              -
 -                                                                             -
 -------------------------------------------------------------------------------
 LP    KERNEL             BACKEND                              COUNT     PERCENT
 2     collocate general  CPU                                   9984      16.24%
 2     integrate general  CPU                                   9728      15.82%
 1     collocate ortho    CPU                                   5699       9.27%
 1     integrate ortho    CPU                                   5576       9.07%
 0     collocate ortho    CPU                                   5143       8.36%
 0     integrate ortho    CPU                                   5032       8.18%
 2     collocate ortho    CPU                                   4587       7.46%
 2     integrate ortho    CPU                                   4488       7.30%
 3     collocate ortho    CPU                                   3336       5.43%
 3     integrate ortho    CPU                                   3264       5.31%
 4     collocate ortho    CPU                                   1529       2.49%
 4     integrate ortho    CPU                                   1496       2.43%
 5     collocate ortho    CPU                                    556       0.90%
 5     integrate ortho    CPU                                    544       0.88%
 6     collocate ortho    CPU                                    139       0.23%
 6     integrate ortho    CPU                                    136       0.22%
 0     collocate general  CPU                                    128       0.21%
 0     integrate general  CPU                                    128       0.21%
 -------------------------------------------------------------------------------

 MEMORY| Estimated peak process memory [MiB]                                 609

 -------------------------------------------------------------------------------
 ----                             MULTIGRID INFO                            ----
 -------------------------------------------------------------------------------
 count for grid        1:         168407          cutoff [a.u.]          600.00
 count for grid        2:          30153          cutoff [a.u.]          200.00
 count for grid        3:          21165          cutoff [a.u.]           66.67
 count for grid        4:           5130          cutoff [a.u.]           22.22
 count for grid        5:            320          cutoff [a.u.]            7.41
 total gridlevel count  :         225175

 -------------------------------------------------------------------------------
 -                                                                             -
 -                         MESSAGE PASSING PERFORMANCE                         -
 -                                                                             -
 -------------------------------------------------------------------------------

 ROUTINE             CALLS      AVE VOLUME [Bytes]
 MP_Group                6
 MP_Bcast              898                 397266.
 MP_Allreduce         6490                   3898.
 MP_Sync                77
 MP_Alltoall          3930                2937593.
 MP_SendRecv         35028                  49840.
 MP_ISendRecv        34272                  49840.
 MP_Wait             68787
 MP_comm_split          72
 MP_ISend            31032                 182941.
 MP_IRecv            32360                 175489.
 -------------------------------------------------------------------------------


 -------------------------------------------------------------------------------
 -                                                                             -
 -                           R E F E R E N C E S                               -
 -                                                                             -
 -------------------------------------------------------------------------------
 
 CP2K version 2023.2 (Development Version), the CP2K developers group (2023).
 CP2K is freely available from https://www.cp2k.org/ .

 Kuehne,Thomas D.; Iannuzzi,Marcella; Del Ben,Mauro;
 Rybkin,Vladimir V.; Seewald,Patrick; Stein,Frederick; Laino,Teodoro;
 Khaliullin,Rustam Z.; Schuett,Ole; Schiffmann,Florian; Golze,Dorothea;
 Wilhelm,Jan; Chulkov,Sergey; Bani-Hashemian,Mohammad Hossein;
 Weber,Valery; Borstnik,Urban; Taillefumier,Mathieu;
 Jakobovits,Alice Shoshana; Lazzaro,Alfio; Pabst,Hans; Mueller,Tiziano;
 Schade,Robert; Guidon,Manuel; Andermatt,Samuel; Holmberg,Nico;
 Schenter,Gregory K.; Hehn,Anna; Bussy,Augustin; Belleflamme,Fabian;
 Tabacchi,Gloria; Gloess,Andreas; Lass,Michael; Bethune,Iain;
 Mundy,Christopher J.; Plessl,Christian; Watkins,Matt;
 VandeVondele,Joost; Krack,Matthias; Hutter,Juerg. 
 The Journal of Chemical Physics, 152 (19), (2020). 
 CP2K: An electronic structure and molecular dynamics software package -
 Quickstep: Efficient and accurate electronic structure calculations.
 https://doi.org/10.1063/5.0007045

 Schuett, Ole; Messmer, Peter; Hutter, Juerg; VandeVondele, Joost. 
 Electronic Structure Calculations on Graphics Processing Units, John
 Wiley & Sons, Ltd, 173-190 (2016). 
 GPU-Accelerated Sparse Matrix-Matrix Multiplication for
 Linear Scaling Density Functional Theory.
 https://doi.org/10.1002/9781118670712.ch8

 Heinecke, A; Henry, G; Hutchinson, M; Pabst, H. 
 Proceedings of Intl. Supercomputing Conference, 981-991 (2016). 
 LIBXSMM: Accelerating Small Matrix Multiplications
 by Runtime Code Generation.
 https://doi.org/10.1109/SC.2016.83

 Borstnik, U; VandeVondele, J; Weber, V; Hutter, J. 
 PARALLEL COMPUTING, 40 (5-6), 47-58 (2014). 
 Sparse matrix multiplication: The distributed block-compressed sparse
 row library.
 https://doi.org/10.1016/j.parco.2014.03.012

 Hutter, J; Iannuzzi, M; Schiffmann, F; VandeVondele, J. 
 WIREs Comput Mol Sci., 4 (1), 15-25 (2014). 
 CP2K: atomistic simulations of condensed matter systems.
 https://doi.org/10.1002/wcms.1159

 Frigo, M; Johnson, SG. 
 PROCEEDINGS OF THE IEEE, 93 (2), 216-231 (2005). 
 The design and implementation of FFTW3.
 https://doi.org/10.1109/JPROC.2004.840301

 Iannuzzi, M; Chassaing, T; Wallman, T; Hutter, J. 
 CHIMIA, 59 (7-8), 499-503 (2005). 
 Ground and excited state density functional calculations with the
 Gaussian and augmented-plane-wave method.
 https://doi.org/10.2533/000942905777676164

 VandeVondele, J; Hutter, J. 
 JOURNAL OF CHEMICAL PHYSICS, 118 (10), 4365-4369 (2003). 
 An efficient orbital transformation method for electronic structure
 calculations.
 https://doi.org/10.1063/1.1543154

 Martin,Richard L.. 
 The Journal of Chemical Physics, 118 (11), 4775-4777 (2003). 
 Natural transition orbitals.
 https://doi.org/10.1063/1.1558471

 Lippert, G; Hutter, J; Parrinello, M. 
 THEORETICAL CHEMISTRY ACCOUNTS, 103 (2), 124-140 (1999). 
 The Gaussian and augmented-plane-wave density functional method for ab
 initio molecular dynamics simulations.
 https://doi.org/10.1007/s002140050523

 Krack, M; Parrinello, M. 
 PHYSICAL CHEMISTRY CHEMICAL PHYSICS, 2 (10), 2105-2112 (2000). 
 All-electron ab-initio molecular dynamics.
 https://doi.org/10.1039/b001167n

 Martyna, GJ; Tuckerman, ME. 
 JOURNAL OF CHEMICAL PHYSICS, 110 (6), 2810-2821 (1999). 
 A reciprocal space based method for treating long range interactions in
 ab initio and force-field-based calculations in clusters.
 https://doi.org/10.1063/1.477923

 Perdew, JP; Burke, K; Ernzerhof, M. 
 PHYSICAL REVIEW LETTERS, 77 (18), 3865-3868 (1996). 
 Generalized gradient approximation made simple.
 https://doi.org/10.1103/PhysRevLett.77.3865


 -------------------------------------------------------------------------------
 -                                                                             -
 -                                T I M I N G                                  -
 -                                                                             -
 -------------------------------------------------------------------------------
 SUBROUTINE                       CALLS  ASD         SELF TIME        TOTAL TIME
                                MAXIMUM       AVERAGE  MAXIMUM  AVERAGE  MAXIMUM
 CP2K                                 1  1.0    0.027    0.048 1537.120 1537.123
 qs_energies                          1  2.0    0.018    0.032 1535.473 1535.493
 qs_energies_properties               1  3.0    0.000    0.000 1244.464 1244.491
 tddfpt                               1  4.0    0.022    0.069 1244.464 1244.491
 tddfpt_soc_energies                  1  5.0    0.000    0.002 1238.255 1238.280
 tddfpt_energies                      2  6.0    0.000    0.001 1200.803 1200.812
 tddfpt_davidson_solver               4  7.0    0.007    0.018 1113.450 1113.470
 tddfpt_compute_Aop_evects           12  8.0    0.000    0.011  788.915  789.016
 fhxc_kernel                         12  9.0    0.004    0.014  653.876  653.952
 cp_dbcsr_sm_fm_multiply            543  9.3    0.008    0.029  539.063  544.000
 dbcsr_multiply_generic            1194 10.8    0.093    0.145  520.874  530.414
 dbcsr_complete_redistribute       1541 11.4    0.065    0.207  295.540  304.661
 scf_env_do_scf                       1  3.0    0.000    0.000  283.283  283.293
 scf_env_do_scf_inner_loop           16  4.0    0.001    0.011  269.647  269.678
 copy_dbcsr_to_fm                   606 10.1    0.007    0.028  249.405  255.961
 multiply_cannon                   1194 11.8    3.427    3.786  241.766  254.099
 tddfpt_orthonormalize_psi1_psi      15  7.9    0.008    0.026  246.845  248.994
 pw_transfer                       3043 12.2    0.154    0.185  230.189  231.537
 fft_wrap_pw1pw2                   2813 13.3    0.013    0.023  229.683  230.987
 fft3d_ps                          2813 15.3   10.007   11.447  226.182  227.545
 multiply_cannon_loop              1194 12.8    0.315    0.439  200.677  211.882
 qs_scf_new_mos                      16  5.0    0.000    0.000  209.885  210.248
 qs_scf_loop_do_ot                   16  6.0    0.000    0.000  209.885  210.248
 cp_dbcsr_sm_fm_multiply_core       543 10.3    0.001    0.001  195.568  202.534
 ot_scf_mini                         16  7.0    0.000    0.000  200.782  201.097
 multiply_cannon_multrec           9552 13.8  168.624  189.111  168.628  189.114
 copy_fm_to_dbcsr                   935 10.5    0.003    0.020  164.089  170.437
 mp_sum_l                          5179 11.0  165.543  169.906  165.543  169.906
 cp_dbcsr_plus_fm_fm_t_native       121 10.0    0.001    0.002  166.515  167.715
 qs_rho_update_rho_low              139  9.4    0.007    0.038  159.306  160.853
 mp_alltoall_z22v                  2813 17.3  147.877  152.348  147.877  152.348
 mp_alltoall_d11v                  6764 12.6  132.860  144.408  132.860  144.408
 tddfpt_apply_energy_diff            12  9.0    0.000    0.001  135.039  135.142
 calculate_rho_elec                 139 10.4    0.072    0.087  133.775  134.999
 fft_wrap_pw1pw2_600               1712 14.4    1.456    1.804  133.431  134.693
 ot_mini                             16  8.0    0.002    0.010  129.855  130.089
 dbcsr_desymmetrize_deep            607 11.1    0.015    0.057  117.567  124.819
 mp_alltoall_i22                   2163 12.3  112.050  120.878  112.050  120.878
 integrate_v_rspace                 136  9.9    0.003    0.034  117.573  119.158
 density_rs2pw                      139 11.4    0.008    0.030  112.283  113.214
 potential_pw2rs                    136 10.9    0.010    0.020  111.960  112.362
 qs_ot_get_derivative                16  9.0    0.000    0.009  107.735  107.991
 mp_sum_dv                         3889 10.3  104.648  107.468  104.648  107.468
 cp_fm_trace_a1b1t1_aa             3325  9.0    7.505   11.720  104.325  105.941
 tddfpt_compute_residual_vects        9  8.0    0.000    0.001   90.709   90.930
 make_m2s                          2388 11.8    0.019    0.032   80.190   89.665
 make_images                       2388 12.8    6.757    7.398   79.643   87.427
 mp_waitall_1                    131947 14.7   63.408   86.398   63.408   86.398
 mp_alltoall_i11v                  5275 12.4   82.916   84.334   82.916   84.334
 tddfpt_apply_xc_analytic           120 10.0    0.098    0.124   83.877   84.096
 qs_ot_get_derivative_diag           15 10.0    0.000    0.000   79.260   79.468
 xc_pw_derive                      1005 11.7    0.006    0.007   77.257   78.812
 x_to_yz                           1084 16.0    3.622    3.961   74.799   75.780
 make_images_sizes                 2388 13.8    0.003    0.013   72.207   74.317
 mp_alltoall_i44                   2388 14.8   72.204   74.315   72.204   74.315
 mp_cart_sub                       1221 12.1   66.326   69.841   66.326   69.841
 yz_to_x                            904 16.8    0.426    0.498   65.357   67.786
 mp_alltoall_z11v                   825 17.1   60.186   62.031   60.186   62.031
 transfer_pw2rs                     757 11.8    0.005    0.025   59.969   60.570
 tddfpt_print_nto_analysis            2  7.0    0.003    0.012   57.704   58.013
 hybrid_alltoall_any               2995 14.3    0.022    0.251   46.179   53.165
 transfer_rs2pw                     774 12.3    0.006    0.016   51.558   52.328
 qs_ot_get_p                         17  7.9    0.000    0.000   49.750   50.151
 xc_pw_divergence                   136 11.8    0.003    0.018   43.159   44.636
 xc_calc_2nd_deriv_analytical       600 11.1    4.679    5.306   43.547   44.257
 qs_ks_update_qs_env                 17  5.0    0.000    0.010   43.107   43.499
 rebuild_ks_matrix                   16  6.0    0.000    0.000   42.687   43.085
 qs_ks_build_kohn_sham_matrix        16  7.0    0.010    0.033   42.687   43.085
 multiply_cannon_metrocomm1        9552 13.8    0.021    0.042   20.011   40.497
 mp_sum_dm                          817 11.2   36.901   39.727   36.901   39.727
 mp_allgather_i34                  1194 12.8   36.864   39.077   36.864   39.077
 mp_cart_create                     615 12.1   35.683   38.971   35.683   38.971
 tddfpt_soc                           1  6.0    0.000    0.000   36.405   36.425
 tddfpt_soc_rcs                       1  7.0    0.005    0.024   36.405   36.425
 mp_waitany                       31032 13.9   34.893   36.061   34.893   36.061
 xz_to_yz                           417 16.4    1.093    1.380   32.606   33.682
 transfer_pw2rs_200                 136 12.9    1.058    1.230   30.163   30.869
 -------------------------------------------------------------------------------

 The number of warnings for this run is : 2
 
 -------------------------------------------------------------------------------
  **** **** ******  **  PROGRAM ENDED AT                 2023-12-06 09:45:59.851
 ***** ** ***  *** **   PROGRAM RAN ON                               nesh-clk622
 **    ****   ******    PROGRAM RAN BY                                  suphc355
 ***** **    ** ** **   PROGRAM PROCESS ID                               3668473
  **** **  *******  **  PROGRAM STOPPED IN /gxfs_work/cau/suphc355/homologes/HX/
                                           AE/F
