 DBCSR| CPU Multiplication driver                                           XSMM (U)
 DBCSR| Multrec recursion limit                                              512 (U)
 DBCSR| Multiplication stack size                                           1000 (D)
 DBCSR| Maximum elements for images                                    UNLIMITED (U)
 DBCSR| Multiplicative factor virtual images                                   1 (U)
 DBCSR| Use multiplication densification                                       T (D)
 DBCSR| Multiplication size stacks                                             3 (U)
 DBCSR| Use memory pool for CPU allocation                                     F (U)
 DBCSR| Number of 3D layers                                               SINGLE (U)
 DBCSR| Use MPI memory allocation                                              F (U)
 DBCSR| Use RMA algorithm                                                      F (U)
 DBCSR| Use Communication thread                                               T (U)
 DBCSR| Communication thread load                                             87 (D)
 DBCSR| MPI: My process id                                                     0
 DBCSR| MPI: Number of processes                                             128
 DBCSR| OMP: Current number of threads                                         1
 DBCSR| OMP: Max number of threads                                             1
 DBCSR| Split modifier for TAS multiplication algorithm                  1.0E+00 (U)


  **** **** ******  **  PROGRAM STARTED AT               2024-02-05 13:22:45.146
 ***** ** ***  *** **   PROGRAM STARTED ON                           nesh-clk562
 **    ****   ******    PROGRAM STARTED BY                              suphc355
 ***** **    ** ** **   PROGRAM PROCESS ID                               3989850
  **** **  *******  **  PROGRAM STARTED IN /gxfs_work/cau/suphc355/homologes/HX/
                                           AE/F

 CP2K| version string:                 CP2K version 2024.1 (Development Version)
 CP2K| source code revision number:                                  git:b6f9133
 CP2K| cp2kflags: omp libint fftw3 libxc libgrpp parallel mpi_f08 scalapack cosm
 CP2K|            a xsmm spglib mkl
 CP2K| is freely available from                            https://www.cp2k.org/
 CP2K| Program compiled at                          Fr 26. Jan 09:14:30 CET 2024
 CP2K| Program compiled on                                           nesh-login3
 CP2K| Program compiled for                                                local
 CP2K| Data directory path            /gxfs_home/cau/suphc355/software/cp2k/data
 CP2K| Input file name                                                    AE.inp
 
 GLOBAL| Force Environment number                                              1
 GLOBAL| Basis set file name                                 ../../../basis_zora
 GLOBAL| Potential file name                                           POTENTIAL
 GLOBAL| MM Potential file name                                     MM_POTENTIAL
 GLOBAL| Coordinate file name                                            opt.xyz
 GLOBAL| Method name                                                        CP2K
 GLOBAL| Project name                                                      HF_AE
 GLOBAL| Run type                                                         ENERGY
 GLOBAL| FFT library                                                       FFTW3
 GLOBAL| Diagonalization library                                       ScaLAPACK
 GLOBAL| DGEMM library                                                      BLAS
 GLOBAL| Orthonormality check for eigenvectors                          DISABLED
 GLOBAL| Matrix multiplication library                                     COSMA
 GLOBAL| All-to-all communication in single precision                          F
 GLOBAL| FFTs using library dependent lengths                                  F
 GLOBAL| Grid backend                                                       AUTO
 GLOBAL| Global print level                                               MEDIUM
 GLOBAL| MPI I/O enabled                                                       T
 GLOBAL| Total number of message passing processes                           128
 GLOBAL| Number of threads for this process                                    1
 GLOBAL| This output is from process                                           0
 GLOBAL| Stack size for threads created by OpenMP (OMP_STACKSIZE)        default
 GLOBAL| CPU model name                Intel(R) Xeon(R) Gold 6226R CPU @ 2.90GHz
 GLOBAL| CPUID                                                              1003

 MEMORY| system memory details [Kb]
 MEMORY|                        rank 0           min           max       average
 MEMORY| MemTotal            196683224     196683224     196683224     196683224
 MEMORY| MemFree             177133440     177133440     177425832     177256422
 MEMORY| Buffers                249812        235864        304012        266621
 MEMORY| Cached                 601060        549452        601060        581217
 MEMORY| Slab                   537052        532988        559684        543619
 MEMORY| SReclaimable           126560        117720        126560        123261
 MEMORY| MemLikelyFree       178110872     178110872     178360796     178227521


 *** Fundamental physical constants (SI units) ***

 *** Literature: B. J. Mohr and B. N. Taylor,
 ***             CODATA recommended values of the fundamental physical
 ***             constants: 2006, Web Version 5.1
 ***             http://physics.nist.gov/constants

 Speed of light in vacuum [m/s]                             2.99792458000000E+08
 Magnetic constant or permeability of vacuum [N/A**2]       1.25663706143592E-06
 Electric constant or permittivity of vacuum [F/m]          8.85418781762039E-12
 Planck constant (h) [J*s]                                  6.62606896000000E-34
 Planck constant (h-bar) [J*s]                              1.05457162825177E-34
 Elementary charge [C]                                      1.60217648700000E-19
 Electron mass [kg]                                         9.10938215000000E-31
 Electron g factor [ ]                                     -2.00231930436220E+00
 Proton mass [kg]                                           1.67262163700000E-27
 Fine-structure constant                                    7.29735253760000E-03
 Rydberg constant [1/m]                                     1.09737315685270E+07
 Avogadro constant [1/mol]                                  6.02214179000000E+23
 Boltzmann constant [J/K]                                   1.38065040000000E-23
 Atomic mass unit [kg]                                      1.66053878200000E-27
 Bohr radius [m]                                            5.29177208590000E-11

 *** Conversion factors ***

 [u] -> [a.u.]                                              1.82288848426455E+03
 [Angstrom] -> [Bohr] = [a.u.]                              1.88972613288564E+00
 [a.u.] = [Bohr] -> [Angstrom]                              5.29177208590000E-01
 [a.u.] -> [s]                                              2.41888432650478E-17
 [a.u.] -> [fs]                                             2.41888432650478E-02
 [a.u.] -> [J]                                              4.35974393937059E-18
 [a.u.] -> [N]                                              8.23872205491840E-08
 [a.u.] -> [K]                                              3.15774647902944E+05
 [a.u.] -> [kJ/mol]                                         2.62549961709828E+03
 [a.u.] -> [kcal/mol]                                       6.27509468713739E+02
 [a.u.] -> [Pa]                                             2.94210107994716E+13
 [a.u.] -> [bar]                                            2.94210107994716E+08
 [a.u.] -> [atm]                                            2.90362800883016E+08
 [a.u.] -> [eV]                                             2.72113838565563E+01
 [a.u.] -> [Hz]                                             6.57968392072181E+15
 [a.u.] -> [1/cm] (wave numbers)                            2.19474631370540E+05
 [a.u./Bohr**2] -> [1/cm]                                   5.14048714338585E+03
 

 CELL_TOP| Volume [angstrom^3]:                                      8000.000000
 CELL_TOP| Vector a [angstrom    20.000     0.000     0.000   |a| =    20.000000
 CELL_TOP| Vector b [angstrom     0.000    20.000     0.000   |b| =    20.000000
 CELL_TOP| Vector c [angstrom     0.000     0.000    20.000   |c| =    20.000000
 CELL_TOP| Angle (b,c), alpha [degree]:                                90.000000
 CELL_TOP| Angle (a,c), beta  [degree]:                                90.000000
 CELL_TOP| Angle (a,b), gamma [degree]:                                90.000000
 CELL_TOP| Numerically orthorhombic:                                         YES
 CELL_TOP| Periodicity                                                      NONE
 
 GENERATE|  Preliminary Number of Bonds generated:                             0
 GENERATE|  Achieved consistency in connectivity generation.

 CELL| Volume [angstrom^3]:                                          8000.000000
 CELL| Vector a [angstrom]:      20.000     0.000     0.000   |a| =    20.000000
 CELL| Vector b [angstrom]:       0.000    20.000     0.000   |b| =    20.000000
 CELL| Vector c [angstrom]:       0.000     0.000    20.000   |c| =    20.000000
 CELL| Angle (b,c), alpha [degree]:                                    90.000000
 CELL| Angle (a,c), beta  [degree]:                                    90.000000
 CELL| Angle (a,b), gamma [degree]:                                    90.000000
 CELL| Numerically orthorhombic:                                             YES
 CELL| Periodicity                                                          NONE

 CELL_REF| Volume [angstrom^3]:                                      8000.000000
 CELL_REF| Vector a [angstrom    20.000     0.000     0.000   |a| =    20.000000
 CELL_REF| Vector b [angstrom     0.000    20.000     0.000   |b| =    20.000000
 CELL_REF| Vector c [angstrom     0.000     0.000    20.000   |c| =    20.000000
 CELL_REF| Angle (b,c), alpha [degree]:                                90.000000
 CELL_REF| Angle (a,c), beta  [degree]:                                90.000000
 CELL_REF| Angle (a,b), gamma [degree]:                                90.000000
 CELL_REF| Numerically orthorhombic:                                         YES
 CELL_REF| Periodicity                                                      NONE

 *******************************************************************************
 *******************************************************************************
 **                                                                           **
 **     #####                         ##              ##                      **
 **    ##   ##            ##          ##              ##                      **
 **   ##     ##                       ##            ######                    **
 **   ##     ##  ##   ##  ##   #####  ##  ##   ####   ##    #####    #####    **
 **   ##     ##  ##   ##  ##  ##      ## ##   ##      ##   ##   ##  ##   ##   **
 **   ##  ## ##  ##   ##  ##  ##      ####     ###    ##   ######   ######    **
 **    ##  ###   ##   ##  ##  ##      ## ##      ##   ##   ##       ##        **
 **     #######   #####   ##   #####  ##  ##  ####    ##    #####   ##        **
 **           ##                                                    ##        **
 **                                                                           **
 **                                                ... make the atoms dance   **
 **                                                                           **
 **            Copyright (C) by CP2K developers group (2000-2024)             **
 **                      J. Chem. Phys. 152, 194103 (2020)                    **
 **                                                                           **
 *******************************************************************************

 DFT| Spin restricted Kohn-Sham (RKS) calculation                            RKS
 DFT| Multiplicity                                                             1
 DFT| Number of spin states                                                    1
 DFT| Charge                                                                   0
 DFT| Self-interaction correction (SIC)                                       NO
 DFT| Cutoffs: density                                              1.000000E-10
 DFT|          gradient                                             1.000000E-10
 DFT|          tau                                                  1.000000E-10
 DFT|          cutoff_smoothing_range                               0.000000E+00
 DFT| XC density smoothing                                                  NONE
 DFT| XC derivatives                                                          PW

 FUNCTIONAL| PBE:
 FUNCTIONAL| J.P.Perdew, K.Burke, M.Ernzerhof, Phys. Rev. Letter, vol. 77, n 18,
 FUNCTIONAL|  pp. 3865-3868, (1996)sx=0.750sc=1.000{spin unpolarized}           


 QS| Method:                                                                GAPW
 QS| Density plane wave grid type                        NON-SPHERICAL FULLSPACE
 QS| Number of grid levels:                                                    5
 QS| Density cutoff [a.u.]:                                                600.0
 QS| Multi grid cutoff [a.u.]: 1) grid level                               600.0
 QS|                           2) grid level                               200.0
 QS|                           3) grid level                                66.7
 QS|                           4) grid level                                22.2
 QS|                           5) grid level                                 7.4
 QS| Grid level progression factor:                                          3.0
 QS| Relative density cutoff [a.u.]:                                        40.0
 QS| Interaction thresholds: eps_pgf_orb:                                1.0E-30
 QS|                         eps_filter_matrix:                          0.0E+00
 QS|                         eps_core_charge:                            1.0E-17
 QS|                         eps_rho_gspace:                             1.0E-15
 QS|                         eps_rho_rspace:                             1.0E-15
 QS|                         eps_gvg_rspace:                             3.2E-08
 QS|                         eps_ppl:                                    1.0E-02
 QS|                         eps_ppnl:                                   3.2E-10
 QS| GAPW|      One center basis from orbital basis primitives
 QS| GAPW|                   eps_fit:                                    1.0E-04
 QS| GAPW|                   eps_iso:                                    1.0E-12
 QS| GAPW|                   eps_svd:                                    1.0E-08
 QS| GAPW|                   eps_cpc:                                    1.0E-15
 QS| GAPW|   atom-r-grid: quadrature:                                     GC_LOG
 QS| GAPW|      atom-s-grid:  max l :                                          6
 QS| GAPW|      max_l_rho0 :                                                   2


 ATOMIC KIND INFORMATION

  1. Atomic kind: F                                     Number of atoms:       1

     Orbital Basis Set                                                  TZP-ZORA

       Number of orbital shell sets:                                          11
       Number of orbital shells:                                              11
       Number of primitive Cartesian functions:                               19
       Number of Cartesian basis functions:                                   36
       Number of spherical basis functions:                                   31
       Norm type:                                                              2

       Normalised Cartesian orbitals:

                        Set   Shell   Orbital            Exponent    Coefficient

                          1       1    1s            16736.043322       1.994950
                                                      2517.472669       3.563656
                                                       575.952179       5.910146
                                                       164.577357       8.676762
                                                        54.273857      10.420306

                          2       1    1s               19.679311       3.929352
                                                         7.495431       1.453737

                          3       1    1s                1.885680       1.146862

                          4       1    1s                0.979868       0.701917

                          5       1    1s                0.323853       0.305965

                          6       1    1px              80.496023       4.297928
                                                        18.653993       4.750053
                                                         5.702737       4.140073
                                                         1.955478       2.296188
                          6       1    1py              80.496023       4.297928
                                                        18.653993       4.750053
                                                         5.702737       4.140073
                                                         1.955478       2.296188
                          6       1    1pz              80.496023       4.297928
                                                        18.653993       4.750053
                                                         5.702737       4.140073
                                                         1.955478       2.296188

                          7       1    1px               0.682954       0.884971
                          7       1    1py               0.682954       0.884971
                          7       1    1pz               0.682954       0.884971

                          8       1    1px               0.220446       0.215312
                          8       1    1py               0.220446       0.215312
                          8       1    1pz               0.220446       0.215312

                          9       1    1dx2              3.181470      12.474070
                          9       1    1dxy              3.181470      21.605722
                          9       1    1dxz              3.181470      21.605722
                          9       1    1dy2              3.181470      12.474070
                          9       1    1dyz              3.181470      21.605722
                          9       1    1dz2              3.181470      12.474070

                         10       1    1dx2              0.890324       1.343132
                         10       1    1dxy              0.890324       2.326373
                         10       1    1dxz              0.890324       2.326373
                         10       1    1dy2              0.890324       1.343132
                         10       1    1dyz              0.890324       2.326373
                         10       1    1dz2              0.890324       1.343132

                         11       1    1fx3              1.993560       6.952170
                         11       1    1fx2y             1.993560      15.545525
                         11       1    1fx2z             1.993560      15.545525
                         11       1    1fxy2             1.993560      15.545525
                         11       1    1fxyz             1.993560      26.925639
                         11       1    1fxz2             1.993560      15.545525
                         11       1    1fy3              1.993560       6.952170
                         11       1    1fy2z             1.993560      15.545525
                         11       1    1fyz2             1.993560      15.545525
                         11       1    1fz3              1.993560       6.952170

       Atomic covalent radius [Angstrom]:                                  0.720

       Atomic van der Waals radius [Angstrom]:                             1.470

     The atoms of this atomic kind are PAW atoms (GAPW):
       Hard Gaussian function radius:                                      1.512
       Rho0 radius:                                                        1.512
       Maximum GTO radius used for PAW projector construction:            24.566

     GAPW Soft Basis Set                                           TZP-ZORA_soft

       Number of orbital shell sets:                                          11
       Number of orbital shells:                                              11
       Number of primitive Cartesian functions:                                9
       Number of Cartesian basis functions:                                   36
       Number of spherical basis functions:                                   31
       Norm type:                                                              2

       Normalised Cartesian orbitals:

                        Set   Shell   Orbital            Exponent    Coefficient

                          1       1    1s         

                          2       1    1s         

                          3       1    1s                1.885680       1.146862

                          4       1    1s                0.979868       0.701917

                          5       1    1s                0.323853       0.305965

                          6       1    1px               1.955478       2.296188
                          6       1    1py               1.955478       2.296188
                          6       1    1pz               1.955478       2.296188

                          7       1    1px               0.682954       0.884971
                          7       1    1py               0.682954       0.884971
                          7       1    1pz               0.682954       0.884971

                          8       1    1px               0.220446       0.215312
                          8       1    1py               0.220446       0.215312
                          8       1    1pz               0.220446       0.215312

                          9       1    1dx2              3.181470      12.474070
                          9       1    1dxy              3.181470      21.605722
                          9       1    1dxz              3.181470      21.605722
                          9       1    1dy2              3.181470      12.474070
                          9       1    1dyz              3.181470      21.605722
                          9       1    1dz2              3.181470      12.474070

                         10       1    1dx2              0.890324       1.343132
                         10       1    1dxy              0.890324       2.326373
                         10       1    1dxz              0.890324       2.326373
                         10       1    1dy2              0.890324       1.343132
                         10       1    1dyz              0.890324       2.326373
                         10       1    1dz2              0.890324       1.343132

                         11       1    1fx3              1.993560       6.952170
                         11       1    1fx2y             1.993560      15.545525
                         11       1    1fx2z             1.993560      15.545525
                         11       1    1fxy2             1.993560      15.545525
                         11       1    1fxyz             1.993560      26.925639
                         11       1    1fxz2             1.993560      15.545525
                         11       1    1fy3              1.993560       6.952170
                         11       1    1fy2z             1.993560      15.545525
                         11       1    1fyz2             1.993560      15.545525
                         11       1    1fz3              1.993560       6.952170

     AE Potential information for                                            ALL

       Description:                                       All-electron potential
                                          Krack, Parrinello, PCCP 2, 2105 (2000)

       Gaussian exponent of the core charge distribution:              10.470541
       Electronic configuration (s p d ...):                           4   5   0

  2. Atomic kind: H                                     Number of atoms:       1

     Orbital Basis Set                                                  TZP-ZORA

       Number of orbital shell sets:                                           6
       Number of orbital shells:                                               6
       Number of primitive Cartesian functions:                                8
       Number of Cartesian basis functions:                                   15
       Number of spherical basis functions:                                   14
       Norm type:                                                              2

       Normalised Cartesian orbitals:

                        Set   Shell   Orbital            Exponent    Coefficient

                          1       1    1s               34.877584       0.254499
                                                         5.233973       0.449285
                                                         1.185033       0.695456

                          2       1    1s                0.328339       0.309138

                          3       1    1s                0.110319       0.136426

                          4       1    1px               0.718844       0.943482
                          4       1    1py               0.718844       0.943482
                          4       1    1pz               0.718844       0.943482

                          5       1    1px               0.350000       0.383729
                          5       1    1py               0.350000       0.383729
                          5       1    1pz               0.350000       0.383729

                          6       1    1dx2              1.075060       1.868171
                          6       1    1dxy              1.075060       3.235768
                          6       1    1dxz              1.075060       3.235768
                          6       1    1dy2              1.075060       1.868171
                          6       1    1dyz              1.075060       3.235768
                          6       1    1dz2              1.075060       1.868171

       Atomic covalent radius [Angstrom]:                                  0.320

       Atomic van der Waals radius [Angstrom]:                             1.090

     The atoms of this atomic kind are PAW atoms (GAPW):
       Hard Gaussian function radius:                                      1.200
       Rho0 radius:                                                        1.200
       Maximum GTO radius used for PAW projector construction:            24.566

     GAPW Soft Basis Set                                           TZP-ZORA_soft

       Number of orbital shell sets:                                           6
       Number of orbital shells:                                               6
       Number of primitive Cartesian functions:                                7
       Number of Cartesian basis functions:                                   15
       Number of spherical basis functions:                                   14
       Norm type:                                                              2

       Normalised Cartesian orbitals:

                        Set   Shell   Orbital            Exponent    Coefficient

                          1       1    1s                5.233973       0.449285
                                                         1.185033       0.695456

                          2       1    1s                0.328339       0.309138

                          3       1    1s                0.110319       0.136426

                          4       1    1px               0.718844       0.943482
                          4       1    1py               0.718844       0.943482
                          4       1    1pz               0.718844       0.943482

                          5       1    1px               0.350000       0.383729
                          5       1    1py               0.350000       0.383729
                          5       1    1pz               0.350000       0.383729

                          6       1    1dx2              1.075060       1.868171
                          6       1    1dxy              1.075060       3.235768
                          6       1    1dxz              1.075060       3.235768
                          6       1    1dy2              1.075060       1.868171
                          6       1    1dyz              1.075060       3.235768
                          6       1    1dz2              1.075060       1.868171

     AE Potential information for                                            ALL

       Description:                                       All-electron potential
                                          Krack, Parrinello, PCCP 2, 2105 (2000)

       Gaussian exponent of the core charge distribution:              12.500000
       Electronic configuration (s p d ...):                           1   0   0


 MOLECULE KIND INFORMATION


 All atoms are their own molecule, skipping detailed information


 TOTAL NUMBERS AND MAXIMUM NUMBERS

  Total number of            - Atomic kinds:                                   2
                             - Atoms:                                          2
                             - Shell sets:                                    17
                             - Shells:                                        17
                             - Primitive Cartesian functions:                 27
                             - Cartesian basis functions:                     51
                             - Spherical basis functions:                     45

  Maximum angular momentum of the orbital basis functions:                     3


 MODULE QUICKSTEP: ATOMIC COORDINATES IN ANGSTROM

   Atom Kind Element         X             Y             Z       Z(eff)     Mass
      1    1 F     9      9.533795     10.000000     10.000000   9.0000  18.9984
      2    2 H     1     10.466205     10.000000     10.000000   1.0000   1.0079



 SCF PARAMETERS         Density guess:                                    ATOMIC
                        --------------------------------------------------------
                        max_scf:                                              20
                        max_scf_history:                                       0
                        max_diis:                                              4
                        --------------------------------------------------------
                        eps_scf:                                        1.00E-07
                        eps_scf_history:                                0.00E+00
                        eps_diis:                                       1.00E-01
                        eps_eigval:                                     1.00E-05
                        --------------------------------------------------------
                        level_shift [a.u.]:                             0.000000
                        --------------------------------------------------------
                        Outer loop SCF in use 
                        No variables optimised in outer loop
                        eps_scf                                         1.00E-07
                        max_scf                                               50
                        No outer loop optimization
                        step_size                                       5.00E-01

 PW_GRID| Information for grid number                                          1
 PW_GRID| Grid distributed over                                   128 processors
 PW_GRID| Real space group dimensions                                   128    1
 PW_GRID| the grid is blocked:                                                NO
 PW_GRID| Cutoff [a.u.]                                                   1200.0
 PW_GRID| spherical cutoff:                                                   NO
 PW_GRID|   Bounds   1           -300     299                Points:         600
 PW_GRID|   Bounds   2           -300     299                Points:         600
 PW_GRID|   Bounds   3           -300     299                Points:         600
 PW_GRID| Volume element (a.u.^3)  0.2499E-03     Volume (a.u.^3)     53986.6767
 PW_GRID| Grid span                                                    FULLSPACE
 PW_GRID|   Distribution                         Average         Max         Min
 PW_GRID|   G-Vectors                          1687500.0     1687800     1687200
 PW_GRID|   G-Rays                                2812.5        2813        2812
 PW_GRID|   Real Space Points                  1687500.0     1800000     1440000

 PW_GRID| Information for grid number                                          2
 PW_GRID| Number of the reference grid                                         1
 PW_GRID| Grid distributed over                                   128 processors
 PW_GRID| Real space group dimensions                                   128    1
 PW_GRID| the grid is blocked:                                                NO
 PW_GRID| Cutoff [a.u.]                                                    600.0
 PW_GRID| spherical cutoff:                                                   NO
 PW_GRID|   Bounds   1           -216     215                Points:         432
 PW_GRID|   Bounds   2           -216     215                Points:         432
 PW_GRID|   Bounds   3           -216     215                Points:         432
 PW_GRID| Volume element (a.u.^3)  0.6696E-03     Volume (a.u.^3)     53986.6767
 PW_GRID| Grid span                                                    FULLSPACE
 PW_GRID|   Distribution                         Average         Max         Min
 PW_GRID|   G-Vectors                           629856.0      630288      629424
 PW_GRID|   G-Rays                                1458.0        1459        1457
 PW_GRID|   Real Space Points                   629856.0      746496      559872

 PW_GRID| Information for grid number                                          3
 PW_GRID| Number of the reference grid                                         2
 PW_GRID| Grid distributed over                                   128 processors
 PW_GRID| Real space group dimensions                                   128    1
 PW_GRID| the grid is blocked:                                                NO
 PW_GRID| Cutoff [a.u.]                                                    200.0
 PW_GRID| spherical cutoff:                                                   NO
 PW_GRID|   Bounds   1           -121     121                Points:         243
 PW_GRID|   Bounds   2           -121     121                Points:         243
 PW_GRID|   Bounds   3           -121     121                Points:         243
 PW_GRID| Volume element (a.u.^3)  0.3762E-02     Volume (a.u.^3)     53986.6767
 PW_GRID| Grid span                                                    FULLSPACE
 PW_GRID|   Distribution                         Average         Max         Min
 PW_GRID|   G-Vectors                           112100.8      112266      111780
 PW_GRID|   G-Rays                                 461.3         462         460
 PW_GRID|   Real Space Points                   112100.8      118098       59049

 PW_GRID| Information for grid number                                          4
 PW_GRID| Number of the reference grid                                         2
 PW_GRID| Grid distributed over                                   128 processors
 PW_GRID| Real space group dimensions                                   128    1
 PW_GRID| the grid is blocked:                                                NO
 PW_GRID| Cutoff [a.u.]                                                     66.7
 PW_GRID| spherical cutoff:                                                   NO
 PW_GRID|   Bounds   1            -72      71                Points:         144
 PW_GRID|   Bounds   2            -72      71                Points:         144
 PW_GRID|   Bounds   3            -72      71                Points:         144
 PW_GRID| Volume element (a.u.^3)  0.1808E-01     Volume (a.u.^3)     53986.6767
 PW_GRID| Grid span                                                    FULLSPACE
 PW_GRID|   Distribution                         Average         Max         Min
 PW_GRID|   G-Vectors                            23328.0       23472       23184
 PW_GRID|   G-Rays                                 162.0         163         161
 PW_GRID|   Real Space Points                    23328.0       41472       20736

 PW_GRID| Information for grid number                                          5
 PW_GRID| Number of the reference grid                                         2
 PW_GRID| Grid distributed over                                   128 processors
 PW_GRID| Real space group dimensions                                     8   16
 PW_GRID| the grid is blocked:                                                NO
 PW_GRID| Cutoff [a.u.]                                                     22.2
 PW_GRID| spherical cutoff:                                                   NO
 PW_GRID|   Bounds   1            -40      40                Points:          81
 PW_GRID|   Bounds   2            -40      40                Points:          81
 PW_GRID|   Bounds   3            -40      40                Points:          81
 PW_GRID| Volume element (a.u.^3)  0.1016         Volume (a.u.^3)     53986.6767
 PW_GRID| Grid span                                                    FULLSPACE
 PW_GRID|   Distribution                         Average         Max         Min
 PW_GRID|   G-Vectors                             4151.9        4293        4050
 PW_GRID|   G-Rays                                  51.3          53          50
 PW_GRID|   Real Space Points                     4151.9        5346        4050

 PW_GRID| Information for grid number                                          6
 PW_GRID| Number of the reference grid                                         2
 PW_GRID| Grid distributed over                                   128 processors
 PW_GRID| Real space group dimensions                                     8   16
 PW_GRID| the grid is blocked:                                                NO
 PW_GRID| Cutoff [a.u.]                                                      7.4
 PW_GRID| spherical cutoff:                                                   NO
 PW_GRID|   Bounds   1            -24      23                Points:          48
 PW_GRID|   Bounds   2            -24      23                Points:          48
 PW_GRID|   Bounds   3            -24      23                Points:          48
 PW_GRID| Volume element (a.u.^3)  0.4882         Volume (a.u.^3)     53986.6767
 PW_GRID| Grid span                                                    FULLSPACE
 PW_GRID|   Distribution                         Average         Max         Min
 PW_GRID|   G-Vectors                              864.0         912         816
 PW_GRID|   G-Rays                                  18.0          19          17
 PW_GRID|   Real Space Points                      864.0         864         864

 POISSON| Solver                                          Martyna-Tuckerman (MT)
 POISSON| MT| Alpha                                                        7.000
 POISSON| MT| Relative cutoff                                                2.0
 POISSON| Periodicity                                                       NONE

 RS_GRID| Information for grid number                                          2
 RS_GRID|   Bounds   1           -216     215                Points:         432
 RS_GRID|   Bounds   2           -216     215                Points:         432
 RS_GRID|   Bounds   3           -216     215                Points:         432
 RS_GRID| Real space distribution over                                  4 groups
 RS_GRID| Real space distribution along direction                              1
 RS_GRID| Border size                                                         34
 RS_GRID| Real space distribution over                                  4 groups
 RS_GRID| Real space distribution along direction                              2
 RS_GRID| Border size                                                         34
 RS_GRID| Real space distribution over                                  8 groups
 RS_GRID| Real space distribution along direction                              3
 RS_GRID| Border size                                                         34
 RS_GRID|   Distribution                         Average         Max         Min
 RS_GRID|   Planes                                 176.0         176         176
 RS_GRID|   Distribution                         Average         Max         Min
 RS_GRID|   Planes                                 176.0         176         176
 RS_GRID|   Distribution                         Average         Max         Min
 RS_GRID|   Planes                                 122.0         122         122

 RS_GRID| Information for grid number                                          3
 RS_GRID|   Bounds   1           -121     121                Points:         243
 RS_GRID|   Bounds   2           -121     121                Points:         243
 RS_GRID|   Bounds   3           -121     121                Points:         243
 RS_GRID| Real space distribution over                                  4 groups
 RS_GRID| Real space distribution along direction                              1
 RS_GRID| Border size                                                         34
 RS_GRID| Real space distribution over                                  4 groups
 RS_GRID| Real space distribution along direction                              2
 RS_GRID| Border size                                                         34
 RS_GRID| Real space distribution over                                  8 groups
 RS_GRID| Real space distribution along direction                              3
 RS_GRID| Border size                                                         34
 RS_GRID|   Distribution                         Average         Max         Min
 RS_GRID|   Planes                                 128.8         129         128
 RS_GRID|   Distribution                         Average         Max         Min
 RS_GRID|   Planes                                 128.8         129         128
 RS_GRID|   Distribution                         Average         Max         Min
 RS_GRID|   Planes                                  98.4          99          98

 RS_GRID| Information for grid number                                          4
 RS_GRID|   Bounds   1            -72      71                Points:         144
 RS_GRID|   Bounds   2            -72      71                Points:         144
 RS_GRID|   Bounds   3            -72      71                Points:         144
 RS_GRID| Real space fully replicated
 RS_GRID| Group size                                                           1

 RS_GRID| Information for grid number                                          5
 RS_GRID|   Bounds   1            -40      40                Points:          81
 RS_GRID|   Bounds   2            -40      40                Points:          81
 RS_GRID|   Bounds   3            -40      40                Points:          81
 RS_GRID| Real space fully replicated
 RS_GRID| Group size                                                           1

 RS_GRID| Information for grid number                                          6
 RS_GRID|   Bounds   1            -24      23                Points:          48
 RS_GRID|   Bounds   2            -24      23                Points:          48
 RS_GRID|   Bounds   3            -24      23                Points:          48
 RS_GRID| Real space fully replicated
 RS_GRID| Group size                                                           1

  HFX_INFO| Replica ID:                                                        1
  HFX_INFO| FRACTION:                                               0.2500000000
  HFX_INFO| Interaction Potential:                                       COULOMB
  HFX_INFO| EPS_SCHWARZ:                                                 1.0E-10
  HFX_INFO| EPS_SCHWARZ_FORCES                                           1.0E-06
  HFX_INFO| EPS_STORAGE_SCALING:                                         1.0E+00
  HFX_INFO| NBINS:                                                            64
  HFX_INFO| BLOCK_SIZE:                                                        1
  HFX_INFO| Number of periodic shells considered:                           NONE
  HFX_INFO| Number of periodic cells considered:                            NONE


 Number of electrons:                                                         10
 Number of occupied orbitals:                                                  5
 Number of molecular orbitals:                                                 5

 Number of orbital functions:                                                 45
 Number of independent orbital functions:                                     45

 Extrapolation method: initial_guess

 Atomic guess: The first density matrix is obtained in terms of atomic orbitals
               and electronic configurations assigned to each atomic kind

 Guess for atomic kind: F

 Electronic structure
    Total number of core electrons                                          0.00
    Total number of valence electrons                                       9.00
    Total number of electrons                                               9.00
    Multiplicity                                                   not specified
    S      2.00  2.00
    P      5.00
 

 *******************************************************************************
                  Iteration          Convergence                     Energy [au]
 *******************************************************************************
                          1         1.40283                     -98.921150941597
                          2         1.51866                     -98.869165684038
                          3        0.106423                     -99.086494189437
                          4        0.331800E-02                 -99.087564993360
                          5        0.177940E-03                 -99.087565939299
                          6        0.360239E-05                 -99.087565942057
                          7        0.383085E-05                 -99.087565942057
                          8        0.128213E-07                 -99.087565942058

 Energy components [Hartree]           Total Energy ::          -99.087565942058
                                        Band Energy ::          -52.578766238002
                                     Kinetic Energy ::           98.719016939034
                                   Potential Energy ::         -197.806582881092
                                      Virial (-V/T) ::            2.003733313139
                                        Core Energy ::         -139.037958686028
                                          XC Energy ::           -9.627291583185
                                     Coulomb Energy ::           49.577684327155

 Orbital energies  State     L     Occupation   Energy[a.u.]          Energy[eV]

                       1     0          2.000     -24.183732         -658.072808
                       2     0          2.000      -1.080297          -29.396387
 
                       1     1          5.000      -0.410142          -11.160520
 

 Total Electron Density at R=0:                                       429.791631

 Guess for atomic kind: H

 Electronic structure
    Total number of core electrons                                          0.00
    Total number of valence electrons                                       1.00
    Total number of electrons                                               1.00
    Multiplicity                                                   not specified
    S      1.00
 

 *******************************************************************************
                  Iteration          Convergence                     Energy [au]
 *******************************************************************************
                          1        0.901344E-02                  -0.444560434385
                          2        0.112810E-02                  -0.444629377369
                          3        0.824978E-04                  -0.444631123607
                          4        0.531592E-07                  -0.444631130415

 Energy components [Hartree]           Total Energy ::           -0.444631130415
                                        Band Energy ::           -0.229051818617
                                     Kinetic Energy ::            0.431531450645
                                   Potential Energy ::           -0.876162581060
                                      Virial (-V/T) ::            2.030356257348
                                        Core Energy ::           -0.496316890851
                                          XC Energy ::           -0.235228547242
                                     Coulomb Energy ::            0.286914307678

 Orbital energies  State     L     Occupation   Energy[a.u.]          Energy[eV]

                       1     0          1.000      -0.229052           -6.232817
 

 Total Electron Density at R=0:                                         0.248567
 Re-scaling the density matrix to get the right number of electrons
                  # Electrons              Trace(P)               Scaling factor
                           10                10.000                        1.000


 SCF WAVEFUNCTION OPTIMIZATION

  ----------------------------------- OT ---------------------------------------
  Minimizer      : DIIS                : direct inversion
                                         in the iterative subspace
                                         using   7 DIIS vectors
                                         safer DIIS on
  Preconditioner : FULL_ALL            : diagonalization, state selective
  Precond_solver : DEFAULT
  stepsize       :    0.15000000                  energy_gap     :    0.08000000
  eps_taylor     :   0.10000E-15                  max_taylor     :             4
  ----------------------------------- OT ---------------------------------------

  Step     Update method      Time    Convergence         Total energy    Change
  ------------------------------------------------------------------------------

  HFX_MEM_INFO| Est. max. program size before HFX [MiB]:                     938
  HFX_MEM_INFO| Number of cart. primitive ERI's calculated:             10091794
  HFX_MEM_INFO| Number of sph. ERI's calculated:                         1840787
  HFX_MEM_INFO| Number of sph. ERI's stored in-core:                     1840787
  HFX_MEM_INFO| Number of sph. ERI's stored on disk:                           0
  HFX_MEM_INFO| Number of sph. ERI's calculated on the fly:                    0
  HFX_MEM_INFO| Total memory consumption ERI's RAM [MiB]:                      7
  HFX_MEM_INFO| Whereof max-vals [MiB]:                                        2
  HFX_MEM_INFO| Total compression factor ERI's RAM:                         2.11
  HFX_MEM_INFO| Total memory consumption ERI's disk [MiB]:                     0
  HFX_MEM_INFO| Total compression factor ERI's disk:                        0.00
  HFX_MEM_INFO| Size of density/Fock matrix [MiB]:                             0
  HFX_MEM_INFO| Size of buffers [MiB]:                                         0
  HFX_MEM_INFO| Est. max. program size after HFX  [MiB]:                     937

     1 OT DIIS     0.15E+00   85.0     0.20025572       -99.2636524293 -9.93E+01
     2 OT DIIS     0.15E+00   52.9     0.08158041      -100.1950406284 -9.31E-01
     3 OT DIIS     0.15E+00   48.9     0.02302419      -100.3710175071 -1.76E-01
     4 OT DIIS     0.15E+00   49.9     0.01254483      -100.3823024745 -1.13E-02
     5 OT DIIS     0.15E+00   50.1     0.00721135      -100.3873474445 -5.04E-03
     6 OT DIIS     0.15E+00   47.1     0.00324136      -100.3893492332 -2.00E-03
     7 OT DIIS     0.15E+00   47.7     0.00062448      -100.3899308791 -5.82E-04
     8 OT DIIS     0.15E+00   49.2     0.00020839      -100.3899480940 -1.72E-05
     9 OT DIIS     0.15E+00   46.0     0.00006555      -100.3899497398 -1.65E-06
    10 OT DIIS     0.15E+00   50.1     0.00001771      -100.3899499107 -1.71E-07
    11 OT DIIS     0.15E+00   47.8     0.00000518      -100.3899499169 -6.21E-09
    12 OT DIIS     0.15E+00   50.6     0.00000145      -100.3899499176 -7.44E-10
    13 OT DIIS     0.15E+00   48.0     0.00000022      -100.3899499177 -5.87E-11
    14 OT DIIS     0.15E+00   47.0     0.00000006      -100.3899499177 -2.32E-12

  *** SCF run converged in    14 steps ***


  Electronic density on regular grids:         -7.2213213690        2.7786786310
  Core density on regular grids:               10.0000000000        0.0000000000
  Hard and soft densities (Lebedev):          -13.4258653899      -10.6471872815
  Total Rho_soft + Rho1_hard - Rho1_soft       -9.9999994773
  Total charge density (r-space):               0.0000005227
  Total Rho_soft + Rho0_soft (g-space):         0.0000004055

  Overlap energy of the core charge distribution:               0.00000001385988
  Self energy of the core charge distribution:               -105.97386364366757
  Core Hamiltonian energy:                                     -4.15610653007891
  Hartree energy:                                              21.77745458371181
  Exchange-correlation energy:                                 -3.17392822567598
  Hartree-Fock Exchange energy:                                -2.59964945853649

  GAPW| Exc from hard and soft atomic rho1:                    -4.95931969009568
  GAPW| local Eh = 1 center integrals:                         -1.30453696719995

  Total energy:                                              -100.38994991768290

  outer SCF iter =    1 RMS gradient =   0.55E-07 energy =       -100.3899499177
  outer SCF loop converged in   1 iterations or   14 steps


 !-----------------------------------------------------------------------------!
                     Mulliken Population Analysis

 #  Atom  Element  Kind  Atomic population                           Net charge
       1     F        1          9.333391                             -0.333391
       2     H        2          0.666609                              0.333391
 # Total charge                             10.000000                  0.000000

 !-----------------------------------------------------------------------------!

 !-----------------------------------------------------------------------------!
                           Hirshfeld Charges

  #Atom  Element  Kind  Ref Charge     Population                    Net charge
      1       F      1       9.000          9.649                        -0.649
      2       H      2       1.000          0.351                         0.649

  Total Charge                                                            0.000
 !-----------------------------------------------------------------------------!

 *******************************************************************************
 **                                                                           **
 **         ######## #######   #######   ######## #######  ########           **
 **            ##    ##     ## ##     ## ##       ##   ##     ##              **
 **            ##    ##     ## ##     ## ######   #######     ##              **
 **            ##    ##     ## ##     ## ##       ##          ##              **
 **            ##    #######   #######   ##       ##          ##              **
 **                                                                           **
 *******************************************************************************
 KERNEL|                                                                    FULL
 FUNCTIONAL| PBE:
 FUNCTIONAL| J.P.Perdew, K.Burke, M.Ernzerhof, Phys. Rev. Letter, vol. 77, n 18,
 FUNCTIONAL|  pp. 3865-3868, (1996)sx=0.750sc=1.000{spin unpolarized}           
 KERNEL|                                                          Exact Exchange
 KERNEL| Spin symmetry of excitations                                    Triplet
 TDDFPT| Number of states calculated                                          10
 TDDFPT| Number of Davidson iterations                                        20
 TDDFPT| Davidson iteration convergence                                0.100E-07
 TDDFPT| Max. number of Krylov space vectors                                  60
 TDDFPT| Molecular Orbitals:        Spin       AOs       Occ      Virt     Total
 TDDFPT|                               1        45         5        40        45

 *******************************************************************************
 **                                                                           **
 **                            ####### ####### #######                        **
 **                        #   ##      ##   ## ##                             **
 **                       ###  ######  ##   ## ##                             **
 **                        #       ##  ##   ## ##                             **
 **                            ######  ####### #######                        **
 **                 Based on the xas module from Augustin Bussy               **
 *******************************************************************************
 
 -------------------------------------------------------------------------------
 -                      TDDFPT TRIPLET ENERGIES                                 -
 -------------------------------------------------------------------------------
 
 -------------------------------------------------------------------------------
 -                            TDDFPT Initial Guess                             -
 -------------------------------------------------------------------------------
          State         Occupied      ->      Virtual          Excitation
          number         orbital              orbital          energy (eV)
 -------------------------------------------------------------------------------
             1                5                    6             12.66884
             2                4                    6             12.66884
             3                3                    6             16.32047
             4                5                    7             21.81707
             5                4                    7             21.81707
             6                5                    8             25.30662
             7                4                    8             25.30662
             8                3                    7             25.46870
             9                5                    9             26.16850
            10                5                   10             26.16850

      Number of active states:                                        200
 -------------------------------------------------------------------------------
 
 -------------------------------------------------------------------------------
 -                      TDDFPT WAVEFUNCTION OPTIMIZATION                       -
 -------------------------------------------------------------------------------

          Step            Time         Convergence           Conv. states
 -------------------------------------------------------------------------------

    State    Exc. energy (eV)      Convergence (eV)
        1       9.8020692            -2.8668E+00
        2       9.8020693            -2.8668E+00
        3      12.9210497            -3.3994E+00
        4      18.6977478            -3.1193E+00
        5      18.6977480            -3.1193E+00
        6      21.5202276            -3.7864E+00
        7      21.9632332            -3.3434E+00
        8      22.2665762            -3.2021E+00
        9      22.2665764            -3.9019E+00
       10      22.6154842            -3.5530E+00
 
             1           456.5          1.4339E-01                      0

    State    Exc. energy (eV)      Convergence (eV)
        1       9.7165182            -8.5551E-02
        2       9.7165184            -8.5551E-02
        3      12.7941337            -1.2692E-01
        4      18.6074345            -9.0313E-02
        5      18.6074346            -9.0313E-02
        6      21.2387528            -2.8147E-01
        7      21.7842660            -1.7897E-01
        8      22.2056610            -6.0915E-02
        9      22.2056612            -6.0915E-02
       10      22.3474261            -2.6806E-01
 
             2           449.6          1.0344E-02                      0

    State    Exc. energy (eV)      Convergence (eV)
        1       9.7164129            -1.0531E-04
        2       9.7164130            -1.0531E-04
        3      12.7935070            -6.2668E-04
        4      18.6065133            -9.2118E-04
        5      18.6065134            -9.2118E-04
        6      21.1221804            -1.1657E-01
        7      21.7001743            -8.4092E-02
        8      22.1032792            -1.0238E-01
        9      22.2029650            -2.6962E-03
       10      22.2029651            -1.4446E-01
 
             3           444.9          5.3088E-03                      0

    State    Exc. energy (eV)      Convergence (eV)
        1       9.7164127            -1.6801E-07
        2       9.7164129            -1.6801E-07
        3      12.7935041            -2.8859E-06
        4      18.6065066            -6.6920E-06
        5      18.6065067            -6.6920E-06
        6      21.0853053            -3.6875E-02
        7      21.6506524            -4.9522E-02
        8      22.0886530            -1.4626E-02
        9      22.0955906            -1.0737E-01
       10      22.2029316            -3.3464E-05
 
             4           444.5          3.9459E-03                      2

    State    Exc. energy (eV)      Convergence (eV)
        1       9.7164127            -1.4676E-10
        2       9.7164129            -1.4676E-10
        3      12.7935041            -5.4694E-09
        4      18.6065066            -1.0889E-08
        5      18.6065067            -1.0889E-08
        6      21.0843888            -9.1658E-04
        7      21.6488680            -1.7845E-03
        8      22.0885478            -1.0523E-04
        9      22.0885870            -7.0036E-03
       10      22.2029316            -9.6498E-08
 
             5           462.6          2.5738E-04                      6

    State    Exc. energy (eV)      Convergence (eV)
        1       9.7164127            -1.6918E-13
        2       9.7164129            -1.4652E-13
        3      12.7935041            -1.3350E-11
        4      18.6065066            -1.8948E-11
        5      18.6065067            -1.8963E-11
        6      21.0843878            -9.1032E-07
        7      21.6488645            -3.4296E-06
        8      22.0885440            -3.8249E-06
        9      22.0885447            -4.2265E-05
       10      22.2029316            -1.6432E-10
 
             6           378.0          1.5532E-06                      6
 ------------------------- Restart Davidson iterations -------------------------

    State    Exc. energy (eV)      Convergence (eV)
        1       9.7164127             4.5316E-15
        2       9.7164129             0.0000E+00
        3      12.7935041             1.5105E-15
        4      18.6065066            -2.1147E-14
        5      18.6065067            -3.0211E-15
        6      21.0843878             0.0000E+00
        7      21.6488645             1.5105E-14
        8      22.0885440             3.0211E-15
        9      22.0885447             3.0211E-15
       10      22.2029316             1.5105E-14
 
             7           358.5          7.7716E-16                     10
 
 -------------------------------------------------------------------------------
 -  TDDFPT run converged in 7 iteration(s) 
 -------------------------------------------------------------------------------

 R-TDDFPT states of multiplicity 3
 Transition dipoles calculated using length formulation

         State    Excitation        Transition dipole (a.u.)        Oscillator
         number   energy (eV)       x           y           z     strength (a.u.)
         ------------------------------------------------------------------------
 TDDFPT|      1       9.71641   0.0000E+00  0.0000E+00  0.0000E+00   0.00000E+00
 TDDFPT|      2       9.71641   0.0000E+00  0.0000E+00  0.0000E+00   0.00000E+00
 TDDFPT|      3      12.79350   0.0000E+00  0.0000E+00  0.0000E+00   0.00000E+00
 TDDFPT|      4      18.60651   0.0000E+00  0.0000E+00  0.0000E+00   0.00000E+00
 TDDFPT|      5      18.60651   0.0000E+00  0.0000E+00  0.0000E+00   0.00000E+00
 TDDFPT|      6      21.08439   0.0000E+00  0.0000E+00  0.0000E+00   0.00000E+00
 TDDFPT|      7      21.64886   0.0000E+00  0.0000E+00  0.0000E+00   0.00000E+00
 TDDFPT|      8      22.08854   0.0000E+00  0.0000E+00  0.0000E+00   0.00000E+00
 TDDFPT|      9      22.08854   0.0000E+00  0.0000E+00  0.0000E+00   0.00000E+00
 TDDFPT|     10      22.20293   0.0000E+00  0.0000E+00  0.0000E+00   0.00000E+00

 TDDFPT : CheckSum  =  0.215129E+01
 
 -------------------------------------------------------------------------------
 -                            Excitation analysis                              -
 -------------------------------------------------------------------------------
        State             Occupied              Virtual             Excitation
        number             orbital              orbital             amplitude
 -------------------------------------------------------------------------------
             1   9.71641 eV
                                 5                    6              -0.993791
                                 5                    7              -0.096119
             2   9.71641 eV
                                 4                    6               0.993791
                                 4                    7               0.096119
             3  12.79350 eV
                                 3                    6               0.981739
                                 3                    7               0.174499
                                 3                   13              -0.050611
             4  18.60651 eV
                                 5                    7              -0.991220
                                 5                    6               0.097965
                                 5                    8              -0.057034
             5  18.60651 eV
                                 4                    7              -0.991220
                                 4                    6               0.097965
                                 4                    8              -0.057034
             6  21.08439 eV
                                 3                    7              -0.666359
                                 5                   10               0.503024
                                 4                    9              -0.503024
                                 3                    6               0.140500
                                 3                    8              -0.087166
                                 2                    6               0.074720
                                 5                   12              -0.070977
                                 4                   11               0.070977
             7  21.64886 eV
                                 3                    7              -0.716366
                                 5                   10              -0.480763
                                 4                    9               0.480762
                                 3                    6               0.114032
                                 4                   11              -0.059738
                                 5                   12               0.059736
             8  22.08854 eV
                                 5                   10               0.558348
                                 4                    9               0.558347
                                 5                    9              -0.427729
                                 4                   10               0.427726
                                 4                   11              -0.055248
                                 5                   12              -0.055231
             9  22.08854 eV
                                 5                    9              -0.558350
                                 4                   10               0.558345
                                 5                   10              -0.427728
                                 4                    9              -0.427727
                                 4                   12              -0.055247
                                 5                   11               0.055231
            10  22.20293 eV
                                 5                    8              -0.995197
                                 3                   10               0.062061
                                 5                    7               0.060135
 -------------------------------------------------------------------------------
 
 -------------------------------------------------------------------------------
 -                            Natural Orbital analysis                         -
 -------------------------------------------------------------------------------
   STATE NR.      1             9.71641 eV
     Particle-Hole state: 1   Spin:1     Eigenvalue: 0.99946   Sum Eigv: 0.99946
   STATE NR.      2             9.71641 eV
     Particle-Hole state: 1   Spin:1     Eigenvalue: 0.99946   Sum Eigv: 0.99946
   STATE NR.      3            12.79350 eV
     Particle-Hole state: 1   Spin:1     Eigenvalue: 0.99880   Sum Eigv: 0.99880
   STATE NR.      4            18.60651 eV
     Particle-Hole state: 1   Spin:1     Eigenvalue: 0.99820   Sum Eigv: 0.99820
   STATE NR.      5            18.60651 eV
     Particle-Hole state: 1   Spin:1     Eigenvalue: 0.99820   Sum Eigv: 0.99820
   STATE NR.      6            21.08439 eV
     Particle-Hole state: 1   Spin:1     Eigenvalue: 0.47518   Sum Eigv: 0.47518
     Particle-Hole state: 2   Spin:1     Eigenvalue: 0.25848   Sum Eigv: 0.73366
     Particle-Hole state: 3   Spin:1     Eigenvalue: 0.25848   Sum Eigv: 0.99214
   STATE NR.      7            21.64886 eV
     Particle-Hole state: 1   Spin:1     Eigenvalue: 0.52961   Sum Eigv: 0.52961
     Particle-Hole state: 2   Spin:1     Eigenvalue: 0.23492   Sum Eigv: 0.76453
     Particle-Hole state: 3   Spin:1     Eigenvalue: 0.23492   Sum Eigv: 0.99945
   STATE NR.      8            22.08854 eV
     Particle-Hole state: 1   Spin:1     Eigenvalue: 0.49993   Sum Eigv: 0.49993
     Particle-Hole state: 2   Spin:1     Eigenvalue: 0.49993   Sum Eigv: 0.99986
   STATE NR.      9            22.08854 eV
     Particle-Hole state: 1   Spin:1     Eigenvalue: 0.49993   Sum Eigv: 0.49993
     Particle-Hole state: 2   Spin:1     Eigenvalue: 0.49993   Sum Eigv: 0.99986
   STATE NR.     10            22.20293 eV
     Particle-Hole state: 1   Spin:1     Eigenvalue: 0.99503   Sum Eigv: 0.99503
 -------------------------------------------------------------------------------
 
                       triplet excitations finished                             
                                                                                
 -------------------------------------------------------------------------------
 -                      TDDFPT SINGLET ENERGIES                                -
 -------------------------------------------------------------------------------
 
 -------------------------------------------------------------------------------
 -                            TDDFPT Initial Guess                             -
 -------------------------------------------------------------------------------
          State         Occupied      ->      Virtual          Excitation
          number         orbital              orbital          energy (eV)
 -------------------------------------------------------------------------------
             1                5                    6             12.66884
             2                4                    6             12.66884
             3                3                    6             16.32047
             4                5                    7             21.81707
             5                4                    7             21.81707
             6                5                    8             25.30662
             7                4                    8             25.30662
             8                3                    7             25.46870
             9                5                    9             26.16850
            10                5                   10             26.16850

      Number of active states:                                        200
 -------------------------------------------------------------------------------
 
 -------------------------------------------------------------------------------
 -                      TDDFPT WAVEFUNCTION OPTIMIZATION                       -
 -------------------------------------------------------------------------------

          Step            Time         Convergence           Conv. states
 -------------------------------------------------------------------------------

    State    Exc. energy (eV)      Convergence (eV)
        1      10.4157020            -2.2531E+00
        2      10.4157022            -2.2531E+00
        3      15.0274584            -1.2930E+00
        4      19.2599522            -2.5571E+00
        5      19.2599523            -2.5571E+00
        6      22.7446156            -2.5620E+00
        7      22.7446158            -2.5620E+00
        8      23.0952495            -2.3734E+00
        9      23.5706383            -2.5979E+00
       10      30.1102329             3.9417E+00
 
             1           444.6          1.4486E-01                      0

    State    Exc. energy (eV)      Convergence (eV)
        1      10.3846365            -3.1066E-02
        2      10.3846366            -3.1066E-02
        3      14.8161396            -2.1132E-01
        4      19.1998290            -6.0123E-02
        5      19.1998292            -6.0123E-02
        6      22.6864255            -5.8190E-02
        7      22.6864256            -5.8190E-02
        8      23.0677353            -2.7514E-02
        9      23.2861491            -2.8449E-01
       10      24.8176585            -5.2926E+00
 
             2           441.5          1.9450E-01                      0

    State    Exc. energy (eV)      Convergence (eV)
        1      10.3845356            -1.0087E-04
        2      10.3845357            -1.0087E-04
        3      14.8123710            -3.7686E-03
        4      19.1995057            -3.2329E-04
        5      19.1995059            -3.2329E-04
        6      22.6856948            -7.3072E-04
        7      22.6856949            -7.3072E-04
        8      23.0588990            -8.8363E-03
        9      23.1468138            -1.3934E-01
       10      23.3648640            -1.4528E+00
 
             3           433.0          5.3389E-02                      0

    State    Exc. energy (eV)      Convergence (eV)
        1      10.3845356            -2.8677E-08
        2      10.3845357            -2.8677E-08
        3      14.8123562            -1.4765E-05
        4      19.1995048            -8.8736E-07
        5      19.1995050            -8.8736E-07
        6      22.6856598            -3.4927E-05
        7      22.6856600            -3.4927E-05
        8      23.0117536            -4.7145E-02
        9      23.1340586            -1.2755E-02
       10      23.1414525            -2.2341E-01
 
             4           442.8          8.2102E-03                      2

    State    Exc. energy (eV)      Convergence (eV)
        1      10.3845356            -7.9484E-12
        2      10.3845357            -7.9545E-12
        3      14.8123562            -4.4926E-08
        4      19.1995048            -4.4157E-10
        5      19.1995050            -4.4158E-10
        6      22.6856598            -9.5973E-08
        7      22.6856599            -9.5974E-08
        8      23.0061663            -5.5873E-03
        9      23.1332693            -7.8933E-04
       10      23.1333082            -8.1443E-03
 
             5           459.3          2.9930E-04                      7

    State    Exc. energy (eV)      Convergence (eV)
        1      10.3845356            -1.9637E-14
        2      10.3845357            -7.5527E-15
        3      14.8123562            -5.0645E-11
        4      19.1995048            -1.2688E-13
        5      19.1995050            -1.4803E-13
        6      22.6856598            -1.8833E-11
        7      22.6856599            -1.8818E-11
        8      23.0061246            -4.1699E-05
        9      23.1332599            -9.4144E-06
       10      23.1332633            -4.4880E-05
 
             6           369.2          1.6493E-06                      7
 ------------------------- Restart Davidson iterations -------------------------

    State    Exc. energy (eV)      Convergence (eV)
        1      10.3845356             1.2084E-14
        2      10.3845357             1.5105E-15
        3      14.8123562             1.5105E-14
        4      19.1995048             9.0632E-15
        5      19.1995050             2.1147E-14
        6      22.6856598            -6.9485E-14
        7      22.6856599             1.2084E-14
        8      23.0061246             0.0000E+00
        9      23.1332599             1.8126E-14
       10      23.1332633             3.0211E-15
 
             7           376.1          2.5535E-15                     10
 
 -------------------------------------------------------------------------------
 -  TDDFPT run converged in 7 iteration(s) 
 -------------------------------------------------------------------------------

 R-TDDFPT states of multiplicity 1
 Transition dipoles calculated using length formulation

         State    Excitation        Transition dipole (a.u.)        Oscillator
         number   energy (eV)       x           y           z     strength (a.u.)
         ------------------------------------------------------------------------
 TDDFPT|      1      10.38454  -4.5607E-09 -3.1194E-01  1.6078E-01   3.13330E-02
 TDDFPT|      2      10.38454  -3.9883E-08 -1.6078E-01 -3.1194E-01   3.13330E-02
 TDDFPT|      3      14.81236   8.0513E-01 -1.3974E-08 -4.8262E-09   2.35242E-01
 TDDFPT|      4      19.19950   4.6810E-09  3.3262E-01 -1.7139E-01   6.58575E-02
[...]
 flops    14 x    14 x     5               578200       0.0%    100.0%      0.0%
 flops    14 x    31 x     5              1280300       0.0%    100.0%      0.0%
 flops     5 x     5 x    14              1439900       0.0%    100.0%      0.0%
 flops    14 x     5 x    14              2163840       0.0%    100.0%      0.0%
 flops    31 x    31 x     5              2834950       0.0%    100.0%      0.0%
 flops     5 x     5 x    31              3188350       0.0%    100.0%      0.0%
 flops    14 x     5 x    31              4517940       0.0%    100.0%      0.0%
 flops    31 x     5 x    14              4517940       0.0%    100.0%      0.0%
 flops    31 x     5 x    31             10609440       0.0%    100.0%      0.0%
 flops inhomo. stacks                           0       0.0%      0.0%      0.0%
 flops total                        32.697610E+06       0.0%    100.0%      0.0%
 flops max/rank                     23.960610E+06       0.0%    100.0%      0.0%
 matmuls inhomo. stacks                         0       0.0%      0.0%      0.0%
 matmuls total                               9584       0.0%    100.0%      0.0%
 number of processed stacks                  8784       0.0%    100.0%      0.0%
 average stack size                                     0.0       1.1       0.0
 marketing flops                    34.527004E+06
 -------------------------------------------------------------------------------
 # multiplications                           1528
 max memory usage/rank               1.517408E+09
 # max total images/rank                        2
 # max 3D layers                                1
 # MPI messages exchanged                 5671936
 MPI messages size (bytes):
  total size                       272.485376E+06
  min size                           0.000000E+00
  max size                          11.160000E+03
  average size                      48.040981E+00
 MPI breakdown and total messages size (bytes):
             size <=      128             5604079                        0
       128 < size <=     8192               53532                112618360
      8192 < size <=    32768               14325                159867000
     32768 < size <=   131072                   0                        0
    131072 < size <=  4194304                   0                        0
   4194304 < size <= 16777216                   0                        0
  16777216 < size                               0                        0
 -------------------------------------------------------------------------------

 *** WARNING in dbcsr_mm.F:291 :: Using a non-square number of MPI ranks ***
 *** might lead to poor performance. Used ranks: 128 Suggested: 121 256  ***

 -------------------------------------------------------------------------------
 -                                                                             -
 -                      DBCSR MESSAGE PASSING PERFORMANCE                      -
 -                                                                             -
 -------------------------------------------------------------------------------
 ROUTINE             CALLS      AVE VOLUME [Bytes]
 MP_Bcast               22                     12.
 MP_Allreduce         6301                      8.
 MP_Alltoall         27759                  37019.
 MP_ISend            97172                    287.
 MP_IRecv            94682                    113.
 -------------------------------------------------------------------------------

 -------------------------------------------------------------------------------
 -                                                                             -
 -                                DBM STATISTICS                               -
 -                                                                             -
 -------------------------------------------------------------------------------
    M  x    N  x    K                                          COUNT     PERCENT
 -------------------------------------------------------------------------------

 -------------------------------------------------------------------------------
 -                                                                             -
 -                                GRID STATISTICS                              -
 -                                                                             -
 -------------------------------------------------------------------------------
 LP    KERNEL             BACKEND                              COUNT     PERCENT
 2     collocate general  CPU                                  22016      21.16%
 2     integrate general  CPU                                  21504      20.67%
 1     collocate ortho    CPU                                   8164       7.85%
 1     integrate ortho    CPU                                   8008       7.70%
 2     collocate ortho    CPU                                   7850       7.54%
 2     integrate ortho    CPU                                   7700       7.40%
 0     collocate ortho    CPU                                   5809       5.58%
 0     integrate ortho    CPU                                   5698       5.48%
 3     collocate ortho    CPU                                   5181       4.98%
 3     integrate ortho    CPU                                   5082       4.88%
 4     collocate ortho    CPU                                   2355       2.26%
 4     integrate ortho    CPU                                   2310       2.22%
 5     collocate ortho    CPU                                    785       0.75%
 5     integrate ortho    CPU                                    770       0.74%
 0     collocate general  CPU                                    256       0.25%
 0     integrate general  CPU                                    256       0.25%
 6     collocate ortho    CPU                                    157       0.15%
 6     integrate ortho    CPU                                    154       0.15%
 -------------------------------------------------------------------------------

 MEMORY| Estimated peak process memory [MiB]                                1459

 -------------------------------------------------------------------------------
 ----                             MULTIGRID INFO                            ----
 -------------------------------------------------------------------------------
 count for grid        1:         335517          cutoff [a.u.]          600.00
 count for grid        2:          81372          cutoff [a.u.]          200.00
 count for grid        3:          55741          cutoff [a.u.]           66.67
 count for grid        4:          11531          cutoff [a.u.]           22.22
 count for grid        5:            640          cutoff [a.u.]            7.41
 total gridlevel count  :         484801

 -------------------------------------------------------------------------------
 -                                                                             -
 -                         MESSAGE PASSING PERFORMANCE                         -
 -                                                                             -
 -------------------------------------------------------------------------------

 ROUTINE             CALLS      AVE VOLUME [Bytes]
 MP_Group                6
 MP_Bcast              923                 388739.
 MP_Allreduce         7145                   5096.
 MP_Sync              1550
 MP_Alltoall          4134               19074359.
 MP_SendRecv         59817                 127152.
 MP_ISendRecv       133604                  62080.
 MP_Wait            170509
 MP_comm_split          72
 MP_ISend            30794                 604397.
 MP_IRecv            33418                 556882.
 -------------------------------------------------------------------------------


 -------------------------------------------------------------------------------
 -                                                                             -
 -                           R E F E R E N C E S                               -
 -                                                                             -
 -------------------------------------------------------------------------------
 
 CP2K version 2024.1 (Development Version), the CP2K developers group (2024).
 CP2K is freely available from https://www.cp2k.org/ .

 Kuehne,Thomas D.; Iannuzzi,Marcella; Del Ben,Mauro;
 Rybkin,Vladimir V.; Seewald,Patrick; Stein,Frederick; Laino,Teodoro;
 Khaliullin,Rustam Z.; Schuett,Ole; Schiffmann,Florian; Golze,Dorothea;
 Wilhelm,Jan; Chulkov,Sergey; Bani-Hashemian,Mohammad Hossein;
 Weber,Valery; Borstnik,Urban; Taillefumier,Mathieu;
 Jakobovits,Alice Shoshana; Lazzaro,Alfio; Pabst,Hans; Mueller,Tiziano;
 Schade,Robert; Guidon,Manuel; Andermatt,Samuel; Holmberg,Nico;
 Schenter,Gregory K.; Hehn,Anna; Bussy,Augustin; Belleflamme,Fabian;
 Tabacchi,Gloria; Gloess,Andreas; Lass,Michael; Bethune,Iain;
 Mundy,Christopher J.; Plessl,Christian; Watkins,Matt;
 VandeVondele,Joost; Krack,Matthias; Hutter,Juerg. 
 The Journal of Chemical Physics, 152 (19), (2020). 
 CP2K: An electronic structure and molecular dynamics software package -
 Quickstep: Efficient and accurate electronic structure calculations.
 https://doi.org/10.1063/5.0007045

 Schuett, Ole; Messmer, Peter; Hutter, Juerg; VandeVondele, Joost. 
 Electronic Structure Calculations on Graphics Processing Units, John
 Wiley & Sons, Ltd, 173-190 (2016). 
 GPU-Accelerated Sparse Matrix-Matrix Multiplication for
 Linear Scaling Density Functional Theory.
 https://doi.org/10.1002/9781118670712.ch8

 Heinecke, A; Henry, G; Hutchinson, M; Pabst, H. 
 Proceedings of Intl. Supercomputing Conference, 981-991 (2016). 
 LIBXSMM: Accelerating Small Matrix Multiplications
 by Runtime Code Generation.
 https://doi.org/10.1109/SC.2016.83

 Borstnik, U; VandeVondele, J; Weber, V; Hutter, J. 
 PARALLEL COMPUTING, 40 (5-6), 47-58 (2014). 
 Sparse matrix multiplication: The distributed block-compressed sparse
 row library.
 https://doi.org/10.1016/j.parco.2014.03.012

 Hutter, J; Iannuzzi, M; Schiffmann, F; VandeVondele, J. 
 WIREs Comput Mol Sci., 4 (1), 15-25 (2014). 
 CP2K: atomistic simulations of condensed matter systems.
 https://doi.org/10.1002/wcms.1159

 Guidon, M; Hutter, J; VandeVondele, J. 
 JOURNAL OF CHEMICAL THEORY AND COMPUTATION, 5 (11), 3010-3021 (2009). 
 Robust Periodic Hartree-Fock Exchange for Large-Scale Simulations Using
 Gaussian Basis Sets.
 https://doi.org/10.1021/ct900494g

 Guidon, M; Schiffmann, F; Hutter, J; VandeVondele, J. 
 JOURNAL OF CHEMICAL PHYSICS, 128 (21), 214104 (2008). 
 Ab initio molecular dynamics using hybrid density functionals.
 https://doi.org/10.1063/1.2931945

 Frigo, M; Johnson, SG. 
 PROCEEDINGS OF THE IEEE, 93 (2), 216-231 (2005). 
 The design and implementation of FFTW3.
 https://doi.org/10.1109/JPROC.2004.840301

 Iannuzzi, M; Chassaing, T; Wallman, T; Hutter, J. 
 CHIMIA, 59 (7-8), 499-503 (2005). 
 Ground and excited state density functional calculations with the
 Gaussian and augmented-plane-wave method.
 https://doi.org/10.2533/000942905777676164

 VandeVondele, J; Hutter, J. 
 JOURNAL OF CHEMICAL PHYSICS, 118 (10), 4365-4369 (2003). 
 An efficient orbital transformation method for electronic structure
 calculations.
 https://doi.org/10.1063/1.1543154

 Martin,Richard L.. 
 The Journal of Chemical Physics, 118 (11), 4775-4777 (2003). 
 Natural transition orbitals.
 https://doi.org/10.1063/1.1558471

 Lippert, G; Hutter, J; Parrinello, M. 
 THEORETICAL CHEMISTRY ACCOUNTS, 103 (2), 124-140 (1999). 
 The Gaussian and augmented-plane-wave density functional method for ab
 initio molecular dynamics simulations.
 https://doi.org/10.1007/s002140050523

 Krack, M; Parrinello, M. 
 PHYSICAL CHEMISTRY CHEMICAL PHYSICS, 2 (10), 2105-2112 (2000). 
 All-electron ab-initio molecular dynamics.
 https://doi.org/10.1039/b001167n

 Martyna, GJ; Tuckerman, ME. 
 JOURNAL OF CHEMICAL PHYSICS, 110 (6), 2810-2821 (1999). 
 A reciprocal space based method for treating long range interactions in
 ab initio and force-field-based calculations in clusters.
 https://doi.org/10.1063/1.477923

 Perdew, JP; Burke, K; Ernzerhof, M. 
 PHYSICAL REVIEW LETTERS, 77 (18), 3865-3868 (1996). 
 Generalized gradient approximation made simple.
 https://doi.org/10.1103/PhysRevLett.77.3865


 -------------------------------------------------------------------------------
 -                                                                             -
 -                                T I M I N G                                  -
 -                                                                             -
 -------------------------------------------------------------------------------
 SUBROUTINE                       CALLS  ASD         SELF TIME        TOTAL TIME
                                MAXIMUM       AVERAGE  MAXIMUM  AVERAGE  MAXIMUM
 CP2K                                 1  1.0    4.209    4.313 7455.579 7455.635
 qs_energies                          1  2.0    0.018    0.074 7391.436 7391.483
 qs_energies_properties               1  3.0    0.000    0.001 6634.052 6634.104
 tddfpt                               1  4.0    0.027    0.078 6634.052 6634.104
 tddfpt_soc_energies                  1  5.0    0.000    0.013 6608.760 6608.835
 tddfpt_energies                      2  6.0    0.007    0.060 6529.516 6529.629
 tddfpt_davidson_solver               4  7.0    0.031    0.095 6045.434 6045.503
 tddfpt_compute_Aop_evects           14  8.0    0.000    0.013 5281.605 5281.829
 fhxc_kernel                         14  9.0    0.026    0.090 3379.213 3379.439
 mp_waitall_1                    308227 14.4 1911.063 1943.242 1911.063 1943.242
 cp_dbcsr_sm_fm_multiply            883  9.5    0.015    0.040 1688.873 1699.023
 tddfpt_apply_hfx                    14  9.0    0.005    0.049 1611.037 1611.134
 dbcsr_complete_redistribute       2841 11.5    0.099    0.245 1350.796 1377.425
 qs_rho_update_rho_low              157  9.5    0.015    0.067 1346.551 1349.588
 calculate_rho_elec                 157 10.5    0.607    0.903 1294.787 1296.584
 density_rs2pw                      157 11.5    0.020    0.062 1263.880 1268.731
 integrate_v_rspace                 154  9.9    0.006    0.017 1222.870 1226.011
 potential_pw2rs                    154 10.9    0.063    0.114 1177.903 1185.363
 transfer_pw2rs                     855 11.9    0.012    0.047 1064.930 1072.617
 transfer_rs2pw                     872 12.4    0.016    0.048 1060.832 1068.005
 integrate_four_center              294 10.9    0.086    0.147 1018.719 1021.747
 copy_dbcsr_to_fm                   944 10.4    0.011    0.025  958.125  972.635
 mp_sendrecv_dv                   59817 14.5  944.787  951.021  944.787  951.021
 tddft_hfx_matrix                   280 10.0    0.017    0.050  939.064  942.215
 dbcsr_multiply_generic            1528 11.1    0.072    0.155  766.089  780.080
 pw_transfer                       3437 12.3    0.493    0.655  751.423  762.468
 fft_wrap_pw1pw2                   3183 13.4    0.047    0.092  749.742  760.579
 scf_env_do_scf                       1  3.0    0.002    0.024  733.433  733.471
 fft3d_ps                          3183 15.4   94.946  106.728  684.702  695.627
 scf_env_do_scf_inner_loop           14  4.0    0.017    0.079  668.494  668.542
 copy_fm_to_dbcsr                  1893 10.6    0.008    0.033  638.149  664.796
 mp_alltoall_d11v                 11708 12.8  594.774  633.787  594.774  633.787
 fft_wrap_pw1pw2_600               1938 14.5    9.324   10.106  553.326  563.487
 integrate_four_center_getP         294 11.9    0.073    0.320  513.229  513.843
 tddfpt_orthonormalize_psi1_psi      16  7.9    0.008    0.039  510.176  511.852
 mp_alltoall_z22v                  3183 17.4  477.657  500.780  477.657  500.780
 mp_alltoall_i11v                  9507 12.5  487.288  488.572  487.288  488.572
 integrate_four_center_dist_KS      294 11.9    0.075    0.363  471.209  471.674
 tddfpt_apply_xc_analytic           140 10.0    2.154    2.753  423.455  426.407
 cp_fm_syevd                         72  9.1    0.011    0.039  414.388  415.089
 transfer_rs2pw_70                  157 13.5    5.074    7.516  391.188  410.971
 transfer_pw2rs_70                  154 12.9    7.508   13.665  389.140  410.469
 tddfpt_print_nto_analysis            2  7.0    0.012    0.049  397.264  397.483
 mp_sum_l                          6180 11.3  355.246  368.600  355.246  368.600
 cp_dbcsr_sm_fm_multiply_core       883 10.5    0.002    0.015  355.873  368.237
 transfer_pw2rs_30                  154 12.9    0.500    1.922  332.680  351.171
 xc_pw_derive                      1143 11.7    0.035    0.082  342.346  349.472
 cp_fm_redistribute_end              72 10.1  183.565  323.230  186.752  325.583
 transfer_rs2pw_30                  157 13.5    0.560    1.061  304.122  323.523
 qs_scf_new_mos                      14  5.0    0.000    0.011  300.520  300.736
 qs_scf_loop_do_ot                   14  6.0    0.000    0.000  300.520  300.736
 mp_cart_sub                       1896 12.4  296.199  297.088  296.199  297.088
 ot_scf_mini                         14  7.0    0.001    0.013  291.508  291.729
 tddfpt_apply_energy_diff            14  9.0    0.001    0.001  291.354  291.416
 cp_dbcsr_plus_fm_fm_t_native       141 10.0    0.006    0.038  280.887  282.754
 cp_fm_syevd_base                    72 10.1  136.450  275.387  136.450  275.387
 qs_ks_update_qs_env                 15  5.0    0.000    0.011  267.309  267.444
 rebuild_ks_matrix                   14  6.0    0.005    0.044  265.648  265.868
 qs_ks_build_kohn_sham_matrix        14  7.0    0.019    0.089  265.643  265.855
 transfer_rs2pw_10                  157 13.5    0.179    1.407  255.291  264.355
 yz_to_x                           1177 16.9   10.558   11.939  244.984  263.842
 dbcsr_desymmetrize_deep            945 11.4    0.020    0.062  247.052  261.480
 mp_sum_dv                         4396 10.2  253.338  256.898  253.338  256.898
 transfer_pw2rs_10                  154 12.9    0.131    0.540  237.626  245.358
 x_to_yz                           1384 16.0   18.941   28.811  234.491  241.350
 xc_calc_2nd_deriv_analytical       700 11.0   55.206   62.893  233.522  234.483
 cp_fm_trace_a1b1t1_aa             3880  9.0    0.010    0.022  229.435  231.998
 mp_sync                           1550 12.6  195.503  225.672  195.503  225.672
 cp_fm_geeig                         20  8.0    0.010    0.053  223.810  224.047
 multiply_cannon                   1528 12.1    0.108    0.132  210.486  220.686
 mp_alltoall_i22                   3799 12.5  187.522  219.610  187.522  219.610
 xc_pw_divergence                   154 11.8    0.012    0.047  186.112  192.251
 tddfpt_compute_residual_vects       10  8.0    0.001    0.001  186.517  186.947
 make_m2s                          3056 12.1    0.036    0.061  154.970  165.079
 make_images                       3056 13.1    0.069    0.167  154.891  164.997
 make_images_sizes                 3056 14.1    0.003    0.003  154.591  164.036
 mp_alltoall_i44                   3056 15.1  154.588  164.034  154.588  164.034
 ot_mini                             14  8.0    0.009    0.036  151.866  152.047
 -------------------------------------------------------------------------------

 The number of warnings for this run is : 1
 
 -------------------------------------------------------------------------------
  **** **** ******  **  PROGRAM ENDED AT                 2024-02-05 15:32:32.115
 ***** ** ***  *** **   PROGRAM RAN ON                               nesh-clk562
 **    ****   ******    PROGRAM RAN BY                                  suphc355
 ***** **    ** ** **   PROGRAM PROCESS ID                               3989850
  **** **  *******  **  PROGRAM STOPPED IN /gxfs_work/cau/suphc355/homologes/HX/
                                           AE/F
