 DBCSR| CPU Multiplication driver                                           XSMM (U)
 DBCSR| Multrec recursion limit                                              512 (U)
 DBCSR| Multiplication stack size                                           1000 (D)
 DBCSR| Maximum elements for images                                    UNLIMITED (U)
 DBCSR| Multiplicative factor virtual images                                   1 (U)
 DBCSR| Use multiplication densification                                       T (D)
 DBCSR| Multiplication size stacks                                             3 (U)
 DBCSR| Use memory pool for CPU allocation                                     F (U)
 DBCSR| Number of 3D layers                                               SINGLE (U)
 DBCSR| Use MPI memory allocation                                              F (U)
 DBCSR| Use RMA algorithm                                                      F (U)
 DBCSR| Use Communication thread                                               T (U)
 DBCSR| Communication thread load                                             83 (D)
 DBCSR| MPI: My process id                                                     0
 DBCSR| MPI: Number of processes                                             128
 DBCSR| OMP: Current number of threads                                         2
 DBCSR| OMP: Max number of threads                                             2
 DBCSR| Split modifier for TAS multiplication algorithm                  1.0E+00 (U)


  **** **** ******  **  PROGRAM STARTED AT               2024-01-12 14:08:35.818
 ***** ** ***  *** **   PROGRAM STARTED ON                           nesh-srp100
 **    ****   ******    PROGRAM STARTED BY                              suphc355
 ***** **    ** ** **   PROGRAM PROCESS ID                               2625288
  **** **  *******  **  PROGRAM STARTED IN /gxfs_work/cau/suphc355/homologes/HX/
                                           AE/F

 CP2K| version string:                 CP2K version 2024.1 (Development Version)
 CP2K| source code revision number:                                  git:15182a3
 CP2K| cp2kflags: omp libint fftw3 libxc libgrpp parallel mpi_f08 scalapack cosm
 CP2K|            a xsmm spglib mkl
 CP2K| is freely available from                            https://www.cp2k.org/
 CP2K| Program compiled at                           Di 9. Jan 09:05:01 CET 2024
 CP2K| Program compiled on                                           nesh-login2
 CP2K| Program compiled for                                                local
 CP2K| Data directory path            /gxfs_home/cau/suphc355/software/cp2k/data
 CP2K| Input file name                                                AE_aug.inp
 
 GLOBAL| Force Environment number                                              1
 GLOBAL| Basis set file name                                  ../../../basis_aug
 GLOBAL| Potential file name                                           POTENTIAL
 GLOBAL| MM Potential file name                                     MM_POTENTIAL
 GLOBAL| Coordinate file name                                            opt.xyz
 GLOBAL| Method name                                                        CP2K
 GLOBAL| Project name                                                  HF_AE_aug
 GLOBAL| Run type                                                         ENERGY
 GLOBAL| FFT library                                                       FFTW3
 GLOBAL| Diagonalization library                                       ScaLAPACK
 GLOBAL| DGEMM library                                                      BLAS
 GLOBAL| Orthonormality check for eigenvectors                          DISABLED
 GLOBAL| Matrix multiplication library                                     COSMA
 GLOBAL| All-to-all communication in single precision                          F
 GLOBAL| FFTs using library dependent lengths                                  F
 GLOBAL| Grid backend                                                       AUTO
 GLOBAL| Global print level                                               MEDIUM
 GLOBAL| MPI I/O enabled                                                       T
 GLOBAL| Total number of message passing processes                           128
 GLOBAL| Number of threads for this process                                    2
 GLOBAL| This output is from process                                           0
 GLOBAL| Stack size for threads created by OpenMP (OMP_STACKSIZE)        default
 GLOBAL| CPU model name                              Intel(R) Xeon(R) Gold 6426Y
 GLOBAL| CPUID                                                              1003

 MEMORY| system memory details [Kb]
 MEMORY|                        rank 0           min           max       average
 MEMORY| MemTotal            263788440     263786136     263788440     263786712
 MEMORY| MemFree             243441152     243441152     244050104     243880775
 MEMORY| Buffers                954740        950840        954740        952455
 MEMORY| Cached                1014512        705912       1014512        783809
 MEMORY| Slab                   560796        506772        560796        521684
 MEMORY| SReclaimable           166312        134508        166312        142763
 MEMORY| MemLikelyFree       245576716     245576716     245843576     245759802


 *** Fundamental physical constants (SI units) ***

 *** Literature: B. J. Mohr and B. N. Taylor,
 ***             CODATA recommended values of the fundamental physical
 ***             constants: 2006, Web Version 5.1
 ***             http://physics.nist.gov/constants

 Speed of light in vacuum [m/s]                             2.99792458000000E+08
 Magnetic constant or permeability of vacuum [N/A**2]       1.25663706143592E-06
 Electric constant or permittivity of vacuum [F/m]          8.85418781762039E-12
 Planck constant (h) [J*s]                                  6.62606896000000E-34
 Planck constant (h-bar) [J*s]                              1.05457162825177E-34
 Elementary charge [C]                                      1.60217648700000E-19
 Electron mass [kg]                                         9.10938215000000E-31
 Electron g factor [ ]                                     -2.00231930436220E+00
 Proton mass [kg]                                           1.67262163700000E-27
 Fine-structure constant                                    7.29735253760000E-03
 Rydberg constant [1/m]                                     1.09737315685270E+07
 Avogadro constant [1/mol]                                  6.02214179000000E+23
 Boltzmann constant [J/K]                                   1.38065040000000E-23
 Atomic mass unit [kg]                                      1.66053878200000E-27
 Bohr radius [m]                                            5.29177208590000E-11

 *** Conversion factors ***

 [u] -> [a.u.]                                              1.82288848426455E+03
 [Angstrom] -> [Bohr] = [a.u.]                              1.88972613288564E+00
 [a.u.] = [Bohr] -> [Angstrom]                              5.29177208590000E-01
 [a.u.] -> [s]                                              2.41888432650478E-17
 [a.u.] -> [fs]                                             2.41888432650478E-02
 [a.u.] -> [J]                                              4.35974393937059E-18
 [a.u.] -> [N]                                              8.23872205491840E-08
 [a.u.] -> [K]                                              3.15774647902944E+05
 [a.u.] -> [kJ/mol]                                         2.62549961709828E+03
 [a.u.] -> [kcal/mol]                                       6.27509468713739E+02
 [a.u.] -> [Pa]                                             2.94210107994716E+13
 [a.u.] -> [bar]                                            2.94210107994716E+08
 [a.u.] -> [atm]                                            2.90362800883016E+08
 [a.u.] -> [eV]                                             2.72113838565563E+01
 [a.u.] -> [Hz]                                             6.57968392072181E+15
 [a.u.] -> [1/cm] (wave numbers)                            2.19474631370540E+05
 [a.u./Bohr**2] -> [1/cm]                                   5.14048714338585E+03
 

 CELL_TOP| Volume [angstrom^3]:                                       512.000000
 CELL_TOP| Vector a [angstrom     8.000     0.000     0.000   |a| =     8.000000
 CELL_TOP| Vector b [angstrom     0.000     8.000     0.000   |b| =     8.000000
 CELL_TOP| Vector c [angstrom     0.000     0.000     8.000   |c| =     8.000000
 CELL_TOP| Angle (b,c), alpha [degree]:                                90.000000
 CELL_TOP| Angle (a,c), beta  [degree]:                                90.000000
 CELL_TOP| Angle (a,b), gamma [degree]:                                90.000000
 CELL_TOP| Numerically orthorhombic:                                         YES
 CELL_TOP| Periodicity                                                      NONE
 
 GENERATE|  Preliminary Number of Bonds generated:                             0
 GENERATE|  Achieved consistency in connectivity generation.

 CELL| Volume [angstrom^3]:                                           512.000000
 CELL| Vector a [angstrom]:       8.000     0.000     0.000   |a| =     8.000000
 CELL| Vector b [angstrom]:       0.000     8.000     0.000   |b| =     8.000000
 CELL| Vector c [angstrom]:       0.000     0.000     8.000   |c| =     8.000000
 CELL| Angle (b,c), alpha [degree]:                                    90.000000
 CELL| Angle (a,c), beta  [degree]:                                    90.000000
 CELL| Angle (a,b), gamma [degree]:                                    90.000000
 CELL| Numerically orthorhombic:                                             YES
 CELL| Periodicity                                                          NONE

 CELL_REF| Volume [angstrom^3]:                                       512.000000
 CELL_REF| Vector a [angstrom     8.000     0.000     0.000   |a| =     8.000000
 CELL_REF| Vector b [angstrom     0.000     8.000     0.000   |b| =     8.000000
 CELL_REF| Vector c [angstrom     0.000     0.000     8.000   |c| =     8.000000
 CELL_REF| Angle (b,c), alpha [degree]:                                90.000000
 CELL_REF| Angle (a,c), beta  [degree]:                                90.000000
 CELL_REF| Angle (a,b), gamma [degree]:                                90.000000
 CELL_REF| Numerically orthorhombic:                                         YES
 CELL_REF| Periodicity                                                      NONE

 *******************************************************************************
 *******************************************************************************
 **                                                                           **
 **     #####                         ##              ##                      **
 **    ##   ##            ##          ##              ##                      **
 **   ##     ##                       ##            ######                    **
 **   ##     ##  ##   ##  ##   #####  ##  ##   ####   ##    #####    #####    **
 **   ##     ##  ##   ##  ##  ##      ## ##   ##      ##   ##   ##  ##   ##   **
 **   ##  ## ##  ##   ##  ##  ##      ####     ###    ##   ######   ######    **
 **    ##  ###   ##   ##  ##  ##      ## ##      ##   ##   ##       ##        **
 **     #######   #####   ##   #####  ##  ##  ####    ##    #####   ##        **
 **           ##                                                    ##        **
 **                                                                           **
 **                                                ... make the atoms dance   **
 **                                                                           **
 **            Copyright (C) by CP2K developers group (2000-2024)             **
 **                      J. Chem. Phys. 152, 194103 (2020)                    **
 **                                                                           **
 *******************************************************************************

 DFT| Spin restricted Kohn-Sham (RKS) calculation                            RKS
 DFT| Multiplicity                                                             1
 DFT| Number of spin states                                                    1
 DFT| Charge                                                                   0
 DFT| Self-interaction correction (SIC)                                       NO
 DFT| Cutoffs: density                                              1.000000E-10
 DFT|          gradient                                             1.000000E-10
 DFT|          tau                                                  1.000000E-10
 DFT|          cutoff_smoothing_range                               0.000000E+00
 DFT| XC density smoothing                                                  NONE
 DFT| XC derivatives                                                          PW

 FUNCTIONAL| PBE:
 FUNCTIONAL| J.P.Perdew, K.Burke, M.Ernzerhof, Phys. Rev. Letter, vol. 77, n 18,
 FUNCTIONAL|  pp. 3865-3868, (1996) {spin unpolarized}                          


 QS| Method:                                                                GAPW
 QS| Density plane wave grid type                        NON-SPHERICAL FULLSPACE
 QS| Number of grid levels:                                                    5
 QS| Density cutoff [a.u.]:                                                600.0
 QS| Multi grid cutoff [a.u.]: 1) grid level                               600.0
 QS|                           2) grid level                               200.0
 QS|                           3) grid level                                66.7
 QS|                           4) grid level                                22.2
 QS|                           5) grid level                                 7.4
 QS| Grid level progression factor:                                          3.0
 QS| Relative density cutoff [a.u.]:                                        40.0
 QS| Interaction thresholds: eps_pgf_orb:                                1.0E-30
 QS|                         eps_filter_matrix:                          0.0E+00
 QS|                         eps_core_charge:                            1.0E-17
 QS|                         eps_rho_gspace:                             1.0E-15
 QS|                         eps_rho_rspace:                             1.0E-15
 QS|                         eps_gvg_rspace:                             3.2E-08
 QS|                         eps_ppl:                                    1.0E-02
 QS|                         eps_ppnl:                                   3.2E-10
 QS| GAPW|      One center basis from orbital basis primitives
 QS| GAPW|                   eps_fit:                                    1.0E-04
 QS| GAPW|                   eps_iso:                                    1.0E-12
 QS| GAPW|                   eps_svd:                                    1.0E-08
 QS| GAPW|                   eps_cpc:                                    1.0E-15
 QS| GAPW|   atom-r-grid: quadrature:                                     GC_LOG
 QS| GAPW|      atom-s-grid:  max l :                                          8
 QS| GAPW|      max_l_rho0 :                                                   2


 ATOMIC KIND INFORMATION

  1. Atomic kind: F                                     Number of atoms:       1

     Orbital Basis Set                                               aug-cc-pVQZ

       Number of orbital shell sets:                                          10
       Number of orbital shells:                                              20
       Number of primitive Cartesian functions:                               29
       Number of Cartesian basis functions:                                  105
       Number of spherical basis functions:                                   80
       Norm type:                                                              2

       Normalised Cartesian orbitals:

                        Set   Shell   Orbital            Exponent    Coefficient

                          1       1    1s            74530.000000       0.305409
                                                     11170.000000       0.571488
                                                      2543.000000       0.984652
                                                       721.000000       1.579315
                                                       235.900000       2.328994
                                                        85.600000       2.998782
                                                        33.550000       3.062569
                                                        13.930000       2.029128
                                                         5.915000       0.570457
                                                         1.843000       0.019335
                                                         0.712400      -0.001114
                                                         0.263700       0.000228

                          1       2    2s            74530.000000       0.000000
                                                     11170.000000       0.000000
                                                      2543.000000       0.000000
                                                       721.000000       0.000000
                                                       235.900000       0.000000
                                                        85.600000       0.000000
                                                        33.550000       0.000000
                                                        13.930000       0.000000
                                                         5.915000       0.000000
                                                         1.843000       1.127338
                                                         0.712400       0.000000
                                                         0.263700       0.000000

                          1       3    3s            74530.000000       0.000000
                                                     11170.000000       0.000000
                                                      2543.000000       0.000000
                                                       721.000000       0.000000
                                                       235.900000       0.000000
                                                        85.600000       0.000000
                                                        33.550000       0.000000
                                                        13.930000       0.000000
                                                         5.915000       0.000000
                                                         1.843000       0.000000
                                                         0.712400       0.552654
                                                         0.263700       0.000000

                          1       4    4s            74530.000000      -0.070726
                                                     11170.000000      -0.133192
                                                      2543.000000      -0.227404
                                                       721.000000      -0.371673
                                                       235.900000      -0.551778
                                                        85.600000      -0.763388
                                                        33.550000      -0.856807
                                                        13.930000      -0.800980
                                                         5.915000      -0.299821
                                                         1.843000       0.336804
                                                         0.712400       0.323309
                                                         0.263700       0.071116

                          1       5    5s            74530.000000       0.000000
                                                     11170.000000       0.000000
                                                      2543.000000       0.000000
                                                       721.000000       0.000000
                                                       235.900000       0.000000
                                                        85.600000       0.000000
                                                        33.550000       0.000000
                                                        13.930000       0.000000
                                                         5.915000       0.000000
                                                         1.843000       0.000000
                                                         0.712400       0.000000
                                                         0.263700       0.262266

                          2       1    1s                0.085940       0.113124

                          3       1    1px              80.390000       0.000000
                                                        18.630000       0.000000
                                                         5.694000       0.000000
                                                         1.953000       3.290924
                                                         0.670200       0.000000
                                                         0.216600       0.000000
                          3       1    1py              80.390000       0.000000
                                                        18.630000       0.000000
                                                         5.694000       0.000000
                                                         1.953000       3.290924
                                                         0.670200       0.000000
                                                         0.216600       0.000000
                          3       1    1pz              80.390000       0.000000
                                                        18.630000       0.000000
                                                         5.694000       0.000000
                                                         1.953000       3.290924
                                                         0.670200       0.000000
                                                         0.216600       0.000000

                          3       2    2px              80.390000       2.177765
                                                        18.630000       2.438752
                                                         5.694000       2.112749
                                                         1.953000       1.189876
                                                         0.670200       0.382202
                                                         0.216600       0.051274
                          3       2    2py              80.390000       2.177765
                                                        18.630000       2.438752
                                                         5.694000       2.112749
                                                         1.953000       1.189876
                                                         0.670200       0.382202
                                                         0.216600       0.051274
                          3       2    2pz              80.390000       2.177765
                                                        18.630000       2.438752
                                                         5.694000       2.112749
                                                         1.953000       1.189876
                                                         0.670200       0.382202
                                                         0.216600       0.051274

                          3       3    3px              80.390000       0.000000
                                                        18.630000       0.000000
                                                         5.694000       0.000000
                                                         1.953000       0.000000
                                                         0.670200       0.864362
                                                         0.216600       0.000000
                          3       3    3py              80.390000       0.000000
                                                        18.630000       0.000000
                                                         5.694000       0.000000
                                                         1.953000       0.000000
                                                         0.670200       0.864362
                                                         0.216600       0.000000
                          3       3    3pz              80.390000       0.000000
                                                        18.630000       0.000000
                                                         5.694000       0.000000
                                                         1.953000       0.000000
                                                         0.670200       0.864362
                                                         0.216600       0.000000

                          3       4    4px              80.390000       0.000000
                                                        18.630000       0.000000
                                                         5.694000       0.000000
                                                         1.953000       0.000000
                                                         0.670200       0.000000
                                                         0.216600       0.210627
                          3       4    4py              80.390000       0.000000
                                                        18.630000       0.000000
                                                         5.694000       0.000000
                                                         1.953000       0.000000
                                                         0.670200       0.000000
                                                         0.216600       0.210627
                          3       4    4pz              80.390000       0.000000
                                                        18.630000       0.000000
                                                         5.694000       0.000000
                                                         1.953000       0.000000
                                                         0.670200       0.000000
                                                         0.216600       0.210627

                          4       1    1px               0.065680       0.047395
                          4       1    1py               0.065680       0.047395
                          4       1    1pz               0.065680       0.047395

                          5       1    1dx2              5.014000      27.652349
                                                         1.725000       0.000000
                                                         0.586000       0.000000
                          5       1    1dxy              5.014000      47.895274
                                                         1.725000       0.000000
                                                         0.586000       0.000000
                          5       1    1dxz              5.014000      47.895274
                                                         1.725000       0.000000
                                                         0.586000       0.000000
                          5       1    1dy2              5.014000      27.652349
                                                         1.725000       0.000000
                                                         0.586000       0.000000
                          5       1    1dyz              5.014000      47.895274
                                                         1.725000       0.000000
                                                         0.586000       0.000000
                          5       1    1dz2              5.014000      27.652349
                                                         1.725000       0.000000
                                                         0.586000       0.000000

                          5       2    2dx2              5.014000       0.000000
                                                         1.725000       4.273566
                                                         0.586000       0.000000
                          5       2    2dxy              5.014000       0.000000
                                                         1.725000       7.402033
                                                         0.586000       0.000000
                          5       2    2dxz              5.014000       0.000000
                                                         1.725000       7.402033
                                                         0.586000       0.000000
                          5       2    2dy2              5.014000       0.000000
                                                         1.725000       4.273566
                                                         0.586000       0.000000
                          5       2    2dyz              5.014000       0.000000
                                                         1.725000       7.402033
                                                         0.586000       0.000000
                          5       2    2dz2              5.014000       0.000000
                                                         1.725000       4.273566
                                                         0.586000       0.000000

                          5       3    3dx2              5.014000       0.000000
                                                         1.725000       0.000000
                                                         0.586000       0.645997
                          5       3    3dxy              5.014000       0.000000
                                                         1.725000       0.000000
                                                         0.586000       1.118899
                          5       3    3dxz              5.014000       0.000000
                                                         1.725000       0.000000
                                                         0.586000       1.118899
                          5       3    3dy2              5.014000       0.000000
                                                         1.725000       0.000000
                                                         0.586000       0.645997
                          5       3    3dyz              5.014000       0.000000
                                                         1.725000       0.000000
                                                         0.586000       1.118899
                          5       3    3dz2              5.014000       0.000000
                                                         1.725000       0.000000
                                                         0.586000       0.645997

                          6       1    1dx2              0.207000       0.104558
                          6       1    1dxy              0.207000       0.181100
                          6       1    1dxz              0.207000       0.181100
                          6       1    1dy2              0.207000       0.104558
                          6       1    1dyz              0.207000       0.181100
                          6       1    1dz2              0.207000       0.104558

                          7       1    1fx3              3.562000      25.660538
                                                         1.148000       0.000000
                          7       1    1fx2y             3.562000      57.378707
                                                         1.148000       0.000000
                          7       1    1fx2z             3.562000      57.378707
                                                         1.148000       0.000000
                          7       1    1fxy2             3.562000      57.378707
                                                         1.148000       0.000000
                          7       1    1fxyz             3.562000      99.382837
                                                         1.148000       0.000000
                          7       1    1fxz2             3.562000      57.378707
                                                         1.148000       0.000000
                          7       1    1fy3              3.562000      25.660538
                                                         1.148000       0.000000
                          7       1    1fy2z             3.562000      57.378707
                                                         1.148000       0.000000
                          7       1    1fyz2             3.562000      57.378707
                                                         1.148000       0.000000
                          7       1    1fz3              3.562000      25.660538
                                                         1.148000       0.000000

                          7       2    2fx3              3.562000       0.000000
                                                         1.148000       2.008277
                          7       2    2fx2y             3.562000       0.000000
                                                         1.148000       4.490645
                          7       2    2fx2z             3.562000       0.000000
                                                         1.148000       4.490645
                          7       2    2fxy2             3.562000       0.000000
                                                         1.148000       4.490645
                          7       2    2fxyz             3.562000       0.000000
                                                         1.148000       7.778025
                          7       2    2fxz2             3.562000       0.000000
                                                         1.148000       4.490645
                          7       2    2fy3              3.562000       0.000000
                                                         1.148000       2.008277
                          7       2    2fy2z             3.562000       0.000000
                                                         1.148000       4.490645
                          7       2    2fyz2             3.562000       0.000000
                                                         1.148000       4.490645
                          7       2    2fz3              3.562000       0.000000
                                                         1.148000       2.008277

                          8       1    1fx3              0.460000       0.256543
                          8       1    1fx2y             0.460000       0.573647
                          8       1    1fx2z             0.460000       0.573647
                          8       1    1fxy2             0.460000       0.573647
                          8       1    1fxyz             0.460000       0.993585
                          8       1    1fxz2             0.460000       0.573647
                          8       1    1fy3              0.460000       0.256543
                          8       1    1fy2z             0.460000       0.573647
                          8       1    1fyz2             0.460000       0.573647
                          8       1    1fz3              0.460000       0.256543

                          9       1    1gx4              2.376000      12.023008
                          9       1    1gx3y             2.376000      31.809888
                          9       1    1gx3z             2.376000      31.809888
                          9       1    1gx2y2            2.376000      41.066389
                          9       1    1gx2yz            2.376000      71.129073
                          9       1    1gx2z2            2.376000      41.066389
                          9       1    1gxy3             2.376000      31.809888
                          9       1    1gxy2z            2.376000      71.129073
                          9       1    1gxyz2            2.376000      71.129073
                          9       1    1gxz3             2.376000      31.809888
                          9       1    1gy4              2.376000      12.023008
                          9       1    1gy3z             2.376000      31.809888
                          9       1    1gy2z2            2.376000      41.066389
                          9       1    1gyz3             2.376000      31.809888
                          9       1    1gz4              2.376000      12.023008

                         10       1    1gx4              0.924000       0.895434
                         10       1    1gx3y             0.924000       2.369094
                         10       1    1gx3z             0.924000       2.369094
                         10       1    1gx2y2            0.924000       3.058488
                         10       1    1gx2yz            0.924000       5.297456
                         10       1    1gx2z2            0.924000       3.058488
                         10       1    1gxy3             0.924000       2.369094
                         10       1    1gxy2z            0.924000       5.297456
                         10       1    1gxyz2            0.924000       5.297456
                         10       1    1gxz3             0.924000       2.369094
                         10       1    1gy4              0.924000       0.895434
                         10       1    1gy3z             0.924000       2.369094
                         10       1    1gy2z2            0.924000       3.058488
                         10       1    1gyz3             0.924000       2.369094
                         10       1    1gz4              0.924000       0.895434

       Atomic covalent radius [Angstrom]:                                  0.720

       Atomic van der Waals radius [Angstrom]:                             1.470

     The atoms of this atomic kind are PAW atoms (GAPW):
       Hard Gaussian function radius:                                      1.512
       Rho0 radius:                                                        1.512
       Maximum GTO radius used for PAW projector construction:            24.566

     GAPW Soft Basis Set                                        aug-cc-pVQZ_soft

       Number of orbital shell sets:                                          10
       Number of orbital shells:                                              20
       Number of primitive Cartesian functions:                               16
       Number of Cartesian basis functions:                                  105
       Number of spherical basis functions:                                   80
       Norm type:                                                              2

       Normalised Cartesian orbitals:

                        Set   Shell   Orbital            Exponent    Coefficient

                          1       1    1s                1.843000       0.019335
                                                         0.712400      -0.001114
                                                         0.263700       0.000228

                          1       2    2s                1.843000       1.127338
                                                         0.712400       0.000000
                                                         0.263700       0.000000

                          1       3    3s                1.843000       0.000000
                                                         0.712400       0.552654
                                                         0.263700       0.000000

                          1       4    4s                1.843000       0.336804
                                                         0.712400       0.323309
                                                         0.263700       0.071116

                          1       5    5s                1.843000       0.000000
                                                         0.712400       0.000000
                                                         0.263700       0.262266

                          2       1    1s                0.085940       0.113124

                          3       1    1px               1.953000       3.290924
                                                         0.670200       0.000000
                                                         0.216600       0.000000
                          3       1    1py               1.953000       3.290924
                                                         0.670200       0.000000
                                                         0.216600       0.000000
                          3       1    1pz               1.953000       3.290924
                                                         0.670200       0.000000
                                                         0.216600       0.000000

                          3       2    2px               1.953000       1.189876
                                                         0.670200       0.382202
                                                         0.216600       0.051274
                          3       2    2py               1.953000       1.189876
                                                         0.670200       0.382202
                                                         0.216600       0.051274
                          3       2    2pz               1.953000       1.189876
                                                         0.670200       0.382202
                                                         0.216600       0.051274

                          3       3    3px               1.953000       0.000000
                                                         0.670200       0.864362
                                                         0.216600       0.000000
                          3       3    3py               1.953000       0.000000
                                                         0.670200       0.864362
                                                         0.216600       0.000000
                          3       3    3pz               1.953000       0.000000
                                                         0.670200       0.864362
                                                         0.216600       0.000000

                          3       4    4px               1.953000       0.000000
                                                         0.670200       0.000000
                                                         0.216600       0.210627
                          3       4    4py               1.953000       0.000000
                                                         0.670200       0.000000
                                                         0.216600       0.210627
                          3       4    4pz               1.953000       0.000000
                                                         0.670200       0.000000
                                                         0.216600       0.210627

                          4       1    1px               0.065680       0.047395
                          4       1    1py               0.065680       0.047395
                          4       1    1pz               0.065680       0.047395

                          5       1    1dx2              1.725000       0.000000
                                                         0.586000       0.000000
                          5       1    1dxy              1.725000       0.000000
                                                         0.586000       0.000000
                          5       1    1dxz              1.725000       0.000000
                                                         0.586000       0.000000
                          5       1    1dy2              1.725000       0.000000
                                                         0.586000       0.000000
                          5       1    1dyz              1.725000       0.000000
                                                         0.586000       0.000000
                          5       1    1dz2              1.725000       0.000000
                                                         0.586000       0.000000

                          5       2    2dx2              1.725000       4.273566
                                                         0.586000       0.000000
                          5       2    2dxy              1.725000       7.402033
                                                         0.586000       0.000000
                          5       2    2dxz              1.725000       7.402033
                                                         0.586000       0.000000
                          5       2    2dy2              1.725000       4.273566
                                                         0.586000       0.000000
                          5       2    2dyz              1.725000       7.402033
                                                         0.586000       0.000000
                          5       2    2dz2              1.725000       4.273566
                                                         0.586000       0.000000

                          5       3    3dx2              1.725000       0.000000
                                                         0.586000       0.645997
                          5       3    3dxy              1.725000       0.000000
                                                         0.586000       1.118899
                          5       3    3dxz              1.725000       0.000000
                                                         0.586000       1.118899
                          5       3    3dy2              1.725000       0.000000
                                                         0.586000       0.645997
                          5       3    3dyz              1.725000       0.000000
                                                         0.586000       1.118899
                          5       3    3dz2              1.725000       0.000000
                                                         0.586000       0.645997

                          6       1    1dx2              0.207000       0.104558
                          6       1    1dxy              0.207000       0.181100
                          6       1    1dxz              0.207000       0.181100
                          6       1    1dy2              0.207000       0.104558
                          6       1    1dyz              0.207000       0.181100
                          6       1    1dz2              0.207000       0.104558

                          7       1    1fx3              3.562000      25.660538
                                                         1.148000       0.000000
                          7       1    1fx2y             3.562000      57.378707
                                                         1.148000       0.000000
                          7       1    1fx2z             3.562000      57.378707
                                                         1.148000       0.000000
                          7       1    1fxy2             3.562000      57.378707
                                                         1.148000       0.000000
                          7       1    1fxyz             3.562000      99.382837
                                                         1.148000       0.000000
                          7       1    1fxz2             3.562000      57.378707
                                                         1.148000       0.000000
                          7       1    1fy3              3.562000      25.660538
                                                         1.148000       0.000000
                          7       1    1fy2z             3.562000      57.378707
                                                         1.148000       0.000000
                          7       1    1fyz2             3.562000      57.378707
                                                         1.148000       0.000000
                          7       1    1fz3              3.562000      25.660538
                                                         1.148000       0.000000

                          7       2    2fx3              3.562000       0.000000
                                                         1.148000       2.008277
                          7       2    2fx2y             3.562000       0.000000
                                                         1.148000       4.490645
                          7       2    2fx2z             3.562000       0.000000
                                                         1.148000       4.490645
                          7       2    2fxy2             3.562000       0.000000
                                                         1.148000       4.490645
                          7       2    2fxyz             3.562000       0.000000
                                                         1.148000       7.778025
                          7       2    2fxz2             3.562000       0.000000
                                                         1.148000       4.490645
                          7       2    2fy3              3.562000       0.000000
                                                         1.148000       2.008277
                          7       2    2fy2z             3.562000       0.000000
                                                         1.148000       4.490645
                          7       2    2fyz2             3.562000       0.000000
                                                         1.148000       4.490645
                          7       2    2fz3              3.562000       0.000000
                                                         1.148000       2.008277

                          8       1    1fx3              0.460000       0.256543
                          8       1    1fx2y             0.460000       0.573647
                          8       1    1fx2z             0.460000       0.573647
                          8       1    1fxy2             0.460000       0.573647
                          8       1    1fxyz             0.460000       0.993585
                          8       1    1fxz2             0.460000       0.573647
                          8       1    1fy3              0.460000       0.256543
                          8       1    1fy2z             0.460000       0.573647
                          8       1    1fyz2             0.460000       0.573647
                          8       1    1fz3              0.460000       0.256543

                          9       1    1gx4              2.376000      12.023008
                          9       1    1gx3y             2.376000      31.809888
                          9       1    1gx3z             2.376000      31.809888
                          9       1    1gx2y2            2.376000      41.066389
                          9       1    1gx2yz            2.376000      71.129073
                          9       1    1gx2z2            2.376000      41.066389
                          9       1    1gxy3             2.376000      31.809888
                          9       1    1gxy2z            2.376000      71.129073
                          9       1    1gxyz2            2.376000      71.129073
                          9       1    1gxz3             2.376000      31.809888
                          9       1    1gy4              2.376000      12.023008
                          9       1    1gy3z             2.376000      31.809888
                          9       1    1gy2z2            2.376000      41.066389
                          9       1    1gyz3             2.376000      31.809888
                          9       1    1gz4              2.376000      12.023008

                         10       1    1gx4              0.924000       0.895434
                         10       1    1gx3y             0.924000       2.369094
                         10       1    1gx3z             0.924000       2.369094
                         10       1    1gx2y2            0.924000       3.058488
                         10       1    1gx2yz            0.924000       5.297456
                         10       1    1gx2z2            0.924000       3.058488
                         10       1    1gxy3             0.924000       2.369094
                         10       1    1gxy2z            0.924000       5.297456
                         10       1    1gxyz2            0.924000       5.297456
                         10       1    1gxz3             0.924000       2.369094
                         10       1    1gy4              0.924000       0.895434
                         10       1    1gy3z             0.924000       2.369094
                         10       1    1gy2z2            0.924000       3.058488
                         10       1    1gyz3             0.924000       2.369094
                         10       1    1gz4              0.924000       0.895434

     AE Potential information for                                            ALL

       Description:                                       All-electron potential
                                          Krack, Parrinello, PCCP 2, 2105 (2000)

       Gaussian exponent of the core charge distribution:              10.470541
       Electronic configuration (s p d ...):                           4   5   0

  2. Atomic kind: H                                     Number of atoms:       1

     Orbital Basis Set                                               aug-cc-pVQZ

       Number of orbital shell sets:                                           8
       Number of orbital shells:                                              14
       Number of primitive Cartesian functions:                               16
       Number of Cartesian basis functions:                                   55
       Number of spherical basis functions:                                   46
       Norm type:                                                              2

       Normalised Cartesian orbitals:

                        Set   Shell   Orbital            Exponent    Coefficient

                          1       1    1s               82.640000       0.000000
                                                        12.410000       0.000000
                                                         2.824000       0.000000
                                                         0.797700       0.601575
                                                         0.258100       0.000000
                                                         0.089890       0.000000

                          1       2    2s               82.640000       0.000000
                                                        12.410000       0.000000
                                                         2.824000       0.000000
                                                         0.797700       0.000000
                                                         0.258100       0.258078
                                                         0.089890       0.000000

                          1       3    3s               82.640000       0.039186
                                                        12.410000       0.072302
                                                         2.824000       0.117344
                                                         0.797700       0.154530
                                                         0.258100       0.128360
                                                         0.089890       0.034648

                          1       4    4s               82.640000       0.000000
                                                        12.410000       0.000000
                                                         2.824000       0.000000
                                                         0.797700       0.000000
                                                         0.258100       0.000000
                                                         0.089890       0.117002

                          2       1    1s                0.023630       0.042954

                          3       1    1px               2.292000       4.019836
                                                         0.838000       0.000000
                                                         0.292000       0.000000
                          3       1    1py               2.292000       4.019836
                                                         0.838000       0.000000
                                                         0.292000       0.000000
                          3       1    1pz               2.292000       4.019836
                                                         0.838000       0.000000
                                                         0.292000       0.000000

                          3       2    2px               2.292000       0.000000
                                                         0.838000       1.142865
                                                         0.292000       0.000000
                          3       2    2py               2.292000       0.000000
                                                         0.838000       1.142865
                                                         0.292000       0.000000
                          3       2    2pz               2.292000       0.000000
                                                         0.838000       1.142865
                                                         0.292000       0.000000

                          3       3    3px               2.292000       0.000000
                                                         0.838000       0.000000
                                                         0.292000       0.305963
                          3       3    3py               2.292000       0.000000
                                                         0.838000       0.000000
                                                         0.292000       0.305963
                          3       3    3pz               2.292000       0.000000
                                                         0.838000       0.000000
                                                         0.292000       0.305963

                          4       1    1px               0.084800       0.065228
                          4       1    1py               0.084800       0.065228
                          4       1    1pz               0.084800       0.065228

                          5       1    1dx2              2.062000       5.840024
                                                         0.662000       0.000000
                          5       1    1dxy              2.062000      10.115218
                                                         0.662000       0.000000
                          5       1    1dxz              2.062000      10.115218
                                                         0.662000       0.000000
                          5       1    1dy2              2.062000       5.840024
                                                         0.662000       0.000000
                          5       1    1dyz              2.062000      10.115218
                                                         0.662000       0.000000
                          5       1    1dz2              2.062000       5.840024
                                                         0.662000       0.000000

                          5       2    2dx2              2.062000       0.000000
                                                         0.662000       0.799670
                          5       2    2dxy              2.062000       0.000000
                                                         0.662000       1.385069
                          5       2    2dxz              2.062000       0.000000
                                                         0.662000       1.385069
                          5       2    2dy2              2.062000       0.000000
                                                         0.662000       0.799670
                          5       2    2dyz              2.062000       0.000000
                                                         0.662000       1.385069
                          5       2    2dz2              2.062000       0.000000
                                                         0.662000       0.799670

                          6       1    1dx2              0.190000       0.089997
                          6       1    1dxy              0.190000       0.155879
                          6       1    1dxz              0.190000       0.155879
                          6       1    1dy2              0.190000       0.089997
                          6       1    1dyz              0.190000       0.155879
                          6       1    1dz2              0.190000       0.089997

                          7       1    1fx3              1.397000       3.123535
                          7       1    1fx2y             1.397000       6.984436
                          7       1    1fx2z             1.397000       6.984436
                          7       1    1fxy2             1.397000       6.984436
                          7       1    1fxyz             1.397000      12.097399
                          7       1    1fxz2             1.397000       6.984436
                          7       1    1fy3              1.397000       3.123535
                          7       1    1fy2z             1.397000       6.984436
                          7       1    1fyz2             1.397000       6.984436
                          7       1    1fz3              1.397000       3.123535

                          8       1    1fx3              0.360000       0.147787
                          8       1    1fx2y             0.360000       0.330461
                          8       1    1fx2z             0.360000       0.330461
                          8       1    1fxy2             0.360000       0.330461
                          8       1    1fxyz             0.360000       0.572375
                          8       1    1fxz2             0.360000       0.330461
                          8       1    1fy3              0.360000       0.147787
                          8       1    1fy2z             0.360000       0.330461
                          8       1    1fyz2             0.360000       0.330461
                          8       1    1fz3              0.360000       0.147787

       Atomic covalent radius [Angstrom]:                                  0.320

       Atomic van der Waals radius [Angstrom]:                             1.090

     The atoms of this atomic kind are PAW atoms (GAPW):
       Hard Gaussian function radius:                                      1.200
       Rho0 radius:                                                        1.200
       Maximum GTO radius used for PAW projector construction:            24.566

     GAPW Soft Basis Set                                        aug-cc-pVQZ_soft

       Number of orbital shell sets:                                           8
       Number of orbital shells:                                              14
       Number of primitive Cartesian functions:                               14
       Number of Cartesian basis functions:                                   55
       Number of spherical basis functions:                                   46
       Norm type:                                                              2

       Normalised Cartesian orbitals:

                        Set   Shell   Orbital            Exponent    Coefficient

                          1       1    1s                2.824000       0.000000
                                                         0.797700       0.601575
                                                         0.258100       0.000000
                                                         0.089890       0.000000

                          1       2    2s                2.824000       0.000000
                                                         0.797700       0.000000
                                                         0.258100       0.258078
                                                         0.089890       0.000000

                          1       3    3s                2.824000       0.117344
                                                         0.797700       0.154530
                                                         0.258100       0.128360
                                                         0.089890       0.034648

                          1       4    4s                2.824000       0.000000
                                                         0.797700       0.000000
                                                         0.258100       0.000000
                                                         0.089890       0.117002

                          2       1    1s                0.023630       0.042954

                          3       1    1px               2.292000       4.019836
                                                         0.838000       0.000000
                                                         0.292000       0.000000
                          3       1    1py               2.292000       4.019836
                                                         0.838000       0.000000
                                                         0.292000       0.000000
                          3       1    1pz               2.292000       4.019836
                                                         0.838000       0.000000
                                                         0.292000       0.000000

                          3       2    2px               2.292000       0.000000
                                                         0.838000       1.142865
                                                         0.292000       0.000000
                          3       2    2py               2.292000       0.000000
                                                         0.838000       1.142865
                                                         0.292000       0.000000
                          3       2    2pz               2.292000       0.000000
                                                         0.838000       1.142865
                                                         0.292000       0.000000

                          3       3    3px               2.292000       0.000000
                                                         0.838000       0.000000
                                                         0.292000       0.305963
                          3       3    3py               2.292000       0.000000
                                                         0.838000       0.000000
                                                         0.292000       0.305963
                          3       3    3pz               2.292000       0.000000
                                                         0.838000       0.000000
                                                         0.292000       0.305963

                          4       1    1px               0.084800       0.065228
                          4       1    1py               0.084800       0.065228
                          4       1    1pz               0.084800       0.065228

                          5       1    1dx2              2.062000       5.840024
                                                         0.662000       0.000000
                          5       1    1dxy              2.062000      10.115218
                                                         0.662000       0.000000
                          5       1    1dxz              2.062000      10.115218
                                                         0.662000       0.000000
                          5       1    1dy2              2.062000       5.840024
                                                         0.662000       0.000000
                          5       1    1dyz              2.062000      10.115218
                                                         0.662000       0.000000
                          5       1    1dz2              2.062000       5.840024
                                                         0.662000       0.000000

                          5       2    2dx2              2.062000       0.000000
                                                         0.662000       0.799670
                          5       2    2dxy              2.062000       0.000000
                                                         0.662000       1.385069
                          5       2    2dxz              2.062000       0.000000
                                                         0.662000       1.385069
                          5       2    2dy2              2.062000       0.000000
                                                         0.662000       0.799670
                          5       2    2dyz              2.062000       0.000000
                                                         0.662000       1.385069
                          5       2    2dz2              2.062000       0.000000
                                                         0.662000       0.799670

                          6       1    1dx2              0.190000       0.089997
                          6       1    1dxy              0.190000       0.155879
                          6       1    1dxz              0.190000       0.155879
                          6       1    1dy2              0.190000       0.089997
                          6       1    1dyz              0.190000       0.155879
                          6       1    1dz2              0.190000       0.089997

                          7       1    1fx3              1.397000       3.123535
                          7       1    1fx2y             1.397000       6.984436
                          7       1    1fx2z             1.397000       6.984436
                          7       1    1fxy2             1.397000       6.984436
                          7       1    1fxyz             1.397000      12.097399
                          7       1    1fxz2             1.397000       6.984436
                          7       1    1fy3              1.397000       3.123535
                          7       1    1fy2z             1.397000       6.984436
                          7       1    1fyz2             1.397000       6.984436
                          7       1    1fz3              1.397000       3.123535

                          8       1    1fx3              0.360000       0.147787
                          8       1    1fx2y             0.360000       0.330461
                          8       1    1fx2z             0.360000       0.330461
                          8       1    1fxy2             0.360000       0.330461
                          8       1    1fxyz             0.360000       0.572375
                          8       1    1fxz2             0.360000       0.330461
                          8       1    1fy3              0.360000       0.147787
                          8       1    1fy2z             0.360000       0.330461
                          8       1    1fyz2             0.360000       0.330461
                          8       1    1fz3              0.360000       0.147787

     AE Potential information for                                            ALL

       Description:                                       All-electron potential
                                          Krack, Parrinello, PCCP 2, 2105 (2000)

       Gaussian exponent of the core charge distribution:              12.500000
       Electronic configuration (s p d ...):                           1   0   0


 MOLECULE KIND INFORMATION


 All atoms are their own molecule, skipping detailed information


 TOTAL NUMBERS AND MAXIMUM NUMBERS

  Total number of            - Atomic kinds:                                   2
                             - Atoms:                                          2
                             - Shell sets:                                    18
                             - Shells:                                        34
                             - Primitive Cartesian functions:                 45
                             - Cartesian basis functions:                    160
                             - Spherical basis functions:                    126

  Maximum angular momentum of the orbital basis functions:                     4


 MODULE QUICKSTEP: ATOMIC COORDINATES IN ANGSTROM

   Atom Kind Element         X             Y             Z       Z(eff)     Mass
      1    1 F     9      3.533795      4.000000      4.000000   9.0000  18.9984
      2    2 H     1      4.466205      4.000000      4.000000   1.0000   1.0079



 SCF PARAMETERS         Density guess:                                    ATOMIC
                        --------------------------------------------------------
                        max_scf:                                              20
                        max_scf_history:                                       0
                        max_diis:                                              4
                        --------------------------------------------------------
                        eps_scf:                                        1.00E-07
                        eps_scf_history:                                0.00E+00
                        eps_diis:                                       1.00E-01
                        eps_eigval:                                     1.00E-05
                        --------------------------------------------------------
                        level_shift [a.u.]:                             0.000000
                        --------------------------------------------------------
                        Outer loop SCF in use 
                        No variables optimised in outer loop
                        eps_scf                                         1.00E-07
                        max_scf                                               50
                        No outer loop optimization
                        step_size                                       5.00E-01

 PW_GRID| Information for grid number                                          1
 PW_GRID| Grid distributed over                                   128 processors
 PW_GRID| Real space group dimensions                                   128    1
 PW_GRID| the grid is blocked:                                                NO
 PW_GRID| Cutoff [a.u.]                                                   1200.0
 PW_GRID| spherical cutoff:                                                   NO
 PW_GRID|   Bounds   1           -120     119                Points:         240
 PW_GRID|   Bounds   2           -120     119                Points:         240
 PW_GRID|   Bounds   3           -120     119                Points:         240
 PW_GRID| Volume element (a.u.^3)  0.2499E-03     Volume (a.u.^3)      3455.1473
 PW_GRID| Grid span                                                    FULLSPACE
 PW_GRID|   Distribution                         Average         Max         Min
 PW_GRID|   G-Vectors                           108000.0      108000      108000
 PW_GRID|   G-Rays                                 450.0         450         450
 PW_GRID|   Real Space Points                   108000.0      115200       57600

 PW_GRID| Information for grid number                                          2
 PW_GRID| Number of the reference grid                                         1
 PW_GRID| Grid distributed over                                   128 processors
 PW_GRID| Real space group dimensions                                   128    1
 PW_GRID| the grid is blocked:                                                NO
 PW_GRID| Cutoff [a.u.]                                                    600.0
 PW_GRID| spherical cutoff:                                                   NO
 PW_GRID|   Bounds   1            -90      89                Points:         180
 PW_GRID|   Bounds   2            -90      89                Points:         180
 PW_GRID|   Bounds   3            -90      89                Points:         180
 PW_GRID| Volume element (a.u.^3)  0.5924E-03     Volume (a.u.^3)      3455.1473
 PW_GRID| Grid span                                                    FULLSPACE
 PW_GRID|   Distribution                         Average         Max         Min
 PW_GRID|   G-Vectors                            45562.5       45720       45360
 PW_GRID|   G-Rays                                 253.1         254         252
 PW_GRID|   Real Space Points                    45562.5       64800       32400

 PW_GRID| Information for grid number                                          3
 PW_GRID| Number of the reference grid                                         2
 PW_GRID| Grid distributed over                                   128 processors
 PW_GRID| Real space group dimensions                                     8   16
 PW_GRID| the grid is blocked:                                                NO
 PW_GRID| Cutoff [a.u.]                                                    200.0
 PW_GRID| spherical cutoff:                                                   NO
 PW_GRID|   Bounds   1            -50      49                Points:         100
 PW_GRID|   Bounds   2            -50      49                Points:         100
 PW_GRID|   Bounds   3            -50      49                Points:         100
 PW_GRID| Volume element (a.u.^3)  0.3455E-02     Volume (a.u.^3)      3455.1473
 PW_GRID| Grid span                                                    FULLSPACE
 PW_GRID|   Distribution                         Average         Max         Min
 PW_GRID|   G-Vectors                             7812.5        7900        7700
 PW_GRID|   G-Rays                                  78.1          79          77
 PW_GRID|   Real Space Points                     7812.5        9100        7200

 PW_GRID| Information for grid number                                          4
 PW_GRID| Number of the reference grid                                         2
 PW_GRID| Grid distributed over                                   128 processors
 PW_GRID| Real space group dimensions                                     8   16
 PW_GRID| the grid is blocked:                                                NO
[...]
 flops    80 x    32 x    80              4915200       0.0%    100.0%      0.0%
 flops    46 x    46 x     5              6072920       0.0%    100.0%      0.0%
 flops   126 x     5 x    80              6249600       0.0%    100.0%      0.0%
 flops     5 x     5 x    80              8424000       0.0%    100.0%      0.0%
 flops    46 x    80 x     5             10561600       0.0%    100.0%      0.0%
 flops    46 x     5 x    46             17647440       0.0%    100.0%      0.0%
 flops    80 x    80 x     5             18368000       0.0%    100.0%      0.0%
 flops    46 x     5 x    80             28372800       0.0%    100.0%      0.0%
 flops    80 x     5 x    46             28372800       0.0%    100.0%      0.0%
 flops    80 x     5 x    80             53376000       0.0%    100.0%      0.0%
 flops inhomo. stacks                           0       0.0%      0.0%      0.0%
 flops total                       202.133548E+06       0.0%    100.0%      0.0%
 flops max/rank                    144.820916E+06       0.0%    100.0%      0.0%
 matmuls inhomo. stacks                         0       0.0%      0.0%      0.0%
 matmuls total                               8809       0.0%    100.0%      0.0%
 number of processed stacks                  8809       0.0%    100.0%      0.0%
 average stack size                                     0.0       1.0       0.0
 marketing flops                   217.342976E+06
 -------------------------------------------------------------------------------
 # multiplications                           1473
 max memory usage/rank             765.014016E+06
 # max total images/rank                        2
 # max 3D layers                                1
 # MPI messages exchanged                 5467776
 MPI messages size (bytes):
  total size                         1.475586E+09
  min size                           0.000000E+00
  max size                          80.640000E+03
  average size                     269.869476E+00
 MPI breakdown and total messages size (bytes):
             size <=      128             5405385                        0
       128 < size <=     8192               40567                108433120
      8192 < size <=    32768                 359                  5700384
     32768 < size <=   131072               21465               1361452320
    131072 < size <=  4194304                   0                        0
   4194304 < size <= 16777216                   0                        0
  16777216 < size                               0                        0
 -------------------------------------------------------------------------------

 *** WARNING in dbcsr_mm.F:291 :: Using a non-square number of MPI ranks ***
 *** might lead to poor performance. Used ranks: 128 Suggested: 121 256  ***

 -------------------------------------------------------------------------------
 -                                                                             -
 -                      DBCSR MESSAGE PASSING PERFORMANCE                      -
 -                                                                             -
 -------------------------------------------------------------------------------
 ROUTINE             CALLS      AVE VOLUME [Bytes]
 MP_Bcast               22                     12.
 MP_Allreduce         6407                      8.
 MP_Alltoall         18224                  36956.
 MP_ISend            93326                   1340.
 MP_IRecv            91294                    436.
 -------------------------------------------------------------------------------

 -------------------------------------------------------------------------------
 -                                                                             -
 -                                DBM STATISTICS                               -
 -                                                                             -
 -------------------------------------------------------------------------------
    M  x    N  x    K                                          COUNT     PERCENT
 -------------------------------------------------------------------------------

 -------------------------------------------------------------------------------
 -                                                                             -
 -                                GRID STATISTICS                              -
 -                                                                             -
 -------------------------------------------------------------------------------
 LP    KERNEL             BACKEND                              COUNT     PERCENT
 2     collocate general  CPU                                  22528       8.73%
 3     collocate ortho    CPU                                  22101       8.57%
 2     integrate general  CPU                                  22016       8.53%
 3     integrate ortho    CPU                                  21684       8.40%
 2     collocate ortho    CPU                                  20511       7.95%
 2     integrate ortho    CPU                                  20124       7.80%
 4     collocate ortho    CPU                                  17967       6.96%
 4     integrate ortho    CPU                                  17628       6.83%
 1     collocate ortho    CPU                                  17172       6.66%
 1     integrate ortho    CPU                                  16848       6.53%
 5     collocate ortho    CPU                                  10971       4.25%
 5     integrate ortho    CPU                                  10764       4.17%
 0     collocate ortho    CPU                                   9699       3.76%
 0     integrate ortho    CPU                                   9516       3.69%
 6     collocate ortho    CPU                                   5883       2.28%
 6     integrate ortho    CPU                                   5772       2.24%
 7     collocate ortho    CPU                                   2544       0.99%
 7     integrate ortho    CPU                                   2496       0.97%
 8     collocate ortho    CPU                                    636       0.25%
 8     integrate ortho    CPU                                    624       0.24%
 0     collocate general  CPU                                    256       0.10%
 0     integrate general  CPU                                    256       0.10%
 -------------------------------------------------------------------------------

 MEMORY| Estimated peak process memory [MiB]                                 729

 -------------------------------------------------------------------------------
 ----                             MULTIGRID INFO                            ----
 -------------------------------------------------------------------------------
 count for grid        1:        9795344          cutoff [a.u.]          600.00
 count for grid        2:        2034890          cutoff [a.u.]          200.00
 count for grid        3:        1272544          cutoff [a.u.]           66.67
 count for grid        4:         401367          cutoff [a.u.]           22.22
 count for grid        5:          46099          cutoff [a.u.]            7.41
 total gridlevel count  :       13550244

 -------------------------------------------------------------------------------
 -                                                                             -
 -                         MESSAGE PASSING PERFORMANCE                         -
 -                                                                             -
 -------------------------------------------------------------------------------

 ROUTINE             CALLS      AVE VOLUME [Bytes]
 MP_Group                6
 MP_Bcast             1019                 403224.
 MP_Allreduce         7387                  15448.
 MP_Sync               715
 MP_Alltoall          4501                1516787.
 MP_SendRecv         80772                  23360.
 MP_ISendRecv        79248                  23360.
 MP_Wait            104575
 MP_comm_split          80
 MP_ISend            26405                 183878.
 MP_IRecv            29022                 167315.
 -------------------------------------------------------------------------------


 -------------------------------------------------------------------------------
 -                                                                             -
 -                           R E F E R E N C E S                               -
 -                                                                             -
 -------------------------------------------------------------------------------
 
 CP2K version 2024.1 (Development Version), the CP2K developers group (2024).
 CP2K is freely available from https://www.cp2k.org/ .

 Kuehne,Thomas D.; Iannuzzi,Marcella; Del Ben,Mauro;
 Rybkin,Vladimir V.; Seewald,Patrick; Stein,Frederick; Laino,Teodoro;
 Khaliullin,Rustam Z.; Schuett,Ole; Schiffmann,Florian; Golze,Dorothea;
 Wilhelm,Jan; Chulkov,Sergey; Bani-Hashemian,Mohammad Hossein;
 Weber,Valery; Borstnik,Urban; Taillefumier,Mathieu;
 Jakobovits,Alice Shoshana; Lazzaro,Alfio; Pabst,Hans; Mueller,Tiziano;
 Schade,Robert; Guidon,Manuel; Andermatt,Samuel; Holmberg,Nico;
 Schenter,Gregory K.; Hehn,Anna; Bussy,Augustin; Belleflamme,Fabian;
 Tabacchi,Gloria; Gloess,Andreas; Lass,Michael; Bethune,Iain;
 Mundy,Christopher J.; Plessl,Christian; Watkins,Matt;
 VandeVondele,Joost; Krack,Matthias; Hutter,Juerg. 
 The Journal of Chemical Physics, 152 (19), (2020). 
 CP2K: An electronic structure and molecular dynamics software package -
 Quickstep: Efficient and accurate electronic structure calculations.
 https://doi.org/10.1063/5.0007045

 Schuett, Ole; Messmer, Peter; Hutter, Juerg; VandeVondele, Joost. 
 Electronic Structure Calculations on Graphics Processing Units, John
 Wiley & Sons, Ltd, 173-190 (2016). 
 GPU-Accelerated Sparse Matrix-Matrix Multiplication for
 Linear Scaling Density Functional Theory.
 https://doi.org/10.1002/9781118670712.ch8

 Heinecke, A; Henry, G; Hutchinson, M; Pabst, H. 
 Proceedings of Intl. Supercomputing Conference, 981-991 (2016). 
 LIBXSMM: Accelerating Small Matrix Multiplications
 by Runtime Code Generation.
 https://doi.org/10.1109/SC.2016.83

 Borstnik, U; VandeVondele, J; Weber, V; Hutter, J. 
 PARALLEL COMPUTING, 40 (5-6), 47-58 (2014). 
 Sparse matrix multiplication: The distributed block-compressed sparse
 row library.
 https://doi.org/10.1016/j.parco.2014.03.012

 Hutter, J; Iannuzzi, M; Schiffmann, F; VandeVondele, J. 
 WIREs Comput Mol Sci., 4 (1), 15-25 (2014). 
 CP2K: atomistic simulations of condensed matter systems.
 https://doi.org/10.1002/wcms.1159

 Frigo, M; Johnson, SG. 
 PROCEEDINGS OF THE IEEE, 93 (2), 216-231 (2005). 
 The design and implementation of FFTW3.
 https://doi.org/10.1109/JPROC.2004.840301

 Iannuzzi, M; Chassaing, T; Wallman, T; Hutter, J. 
 CHIMIA, 59 (7-8), 499-503 (2005). 
 Ground and excited state density functional calculations with the
 Gaussian and augmented-plane-wave method.
 https://doi.org/10.2533/000942905777676164

 VandeVondele, J; Hutter, J. 
 JOURNAL OF CHEMICAL PHYSICS, 118 (10), 4365-4369 (2003). 
 An efficient orbital transformation method for electronic structure
 calculations.
 https://doi.org/10.1063/1.1543154

 Martin,Richard L.. 
 The Journal of Chemical Physics, 118 (11), 4775-4777 (2003). 
 Natural transition orbitals.
 https://doi.org/10.1063/1.1558471

 Lippert, G; Hutter, J; Parrinello, M. 
 THEORETICAL CHEMISTRY ACCOUNTS, 103 (2), 124-140 (1999). 
 The Gaussian and augmented-plane-wave density functional method for ab
 initio molecular dynamics simulations.
 https://doi.org/10.1007/s002140050523

 Krack, M; Parrinello, M. 
 PHYSICAL CHEMISTRY CHEMICAL PHYSICS, 2 (10), 2105-2112 (2000). 
 All-electron ab-initio molecular dynamics.
 https://doi.org/10.1039/b001167n

 Martyna, GJ; Tuckerman, ME. 
 JOURNAL OF CHEMICAL PHYSICS, 110 (6), 2810-2821 (1999). 
 A reciprocal space based method for treating long range interactions in
 ab initio and force-field-based calculations in clusters.
 https://doi.org/10.1063/1.477923

 Perdew, JP; Burke, K; Ernzerhof, M. 
 PHYSICAL REVIEW LETTERS, 77 (18), 3865-3868 (1996). 
 Generalized gradient approximation made simple.
 https://doi.org/10.1103/PhysRevLett.77.3865


 -------------------------------------------------------------------------------
 -                                                                             -
 -                                T I M I N G                                  -
 -                                                                             -
 -------------------------------------------------------------------------------
 SUBROUTINE                       CALLS  ASD         SELF TIME        TOTAL TIME
                                MAXIMUM       AVERAGE  MAXIMUM  AVERAGE  MAXIMUM
 CP2K                                 1  1.0    0.031    0.064 2522.664 2522.669
 qs_energies                          1  2.0    0.009    0.028 2520.148 2520.169
 qs_energies_properties               1  3.0    0.000    0.012 1854.779 1854.811
 tddfpt                               1  4.0    0.008    0.033 1854.779 1854.811
 tddfpt_soc_energies                  1  5.0    0.000    0.001 1846.957 1846.981
 tddfpt_energies                      2  6.0    0.001    0.013 1793.800 1793.808
 tddfpt_davidson_solver               4  7.0    0.004    0.032 1685.205 1685.237
 tddfpt_compute_Aop_evects           13  8.0    0.000    0.000 1207.641 1207.730
 dbcsr_multiply_generic            1473 10.7    0.133    0.266 1022.180 1034.109
 fhxc_kernel                         13  9.0    0.005    0.026 1021.064 1021.133
 cp_dbcsr_sm_fm_multiply            586  9.3    0.007    0.028  764.682  769.367
 scf_env_do_scf                       1  3.0    0.000    0.002  655.317  655.344
 scf_env_do_scf_inner_loop           26  4.0    0.003    0.022  617.246  617.271
 multiply_cannon                   1473 11.7    4.005    4.654  577.329  596.443
 multiply_cannon_loop              1473 12.7    0.773    0.963  516.106  536.223
 qs_scf_new_mos                      26  5.0    0.000    0.010  478.890  479.580
 qs_scf_loop_do_ot                   26  6.0    0.000    0.011  478.890  479.580
 ot_scf_mini                         26  7.0    0.001    0.021  456.512  457.307
 pw_transfer                       3483 12.1    0.097    0.134  452.526  453.806
 multiply_cannon_multrec          23568 13.7  395.460  453.782  395.465  453.786
 fft_wrap_pw1pw2                   3223 13.2    0.009    0.020  452.097  453.386
 fft3d_ps                          3223 15.2    7.845    9.199  450.507  451.966
 tddfpt_orthonormalize_psi1_psi      16  7.9    0.005    0.025  365.215  366.615
 dbcsr_complete_redistribute       1680 11.4    0.058    0.424  356.787  361.767
 cp_dbcsr_sm_fm_multiply_core       586 10.3    0.001    0.001  341.184  350.400
 ot_mini                             26  8.0    0.002    0.025  314.573  315.172
 copy_dbcsr_to_fm                   662 10.1    0.006    0.030  307.865  313.959
 mp_sum_l                          6442 11.0  273.916  282.109  273.916  282.109
 qs_rho_update_rho_low              159  9.1    0.005    0.041  270.869  272.883
 qs_ot_get_derivative                26  9.0    0.000    0.013  260.267  260.954
 mp_alltoall_z22v                  3223 17.2  256.307  259.716  256.307  259.716
 cp_dbcsr_plus_fm_fm_t_native       131 10.0    0.002    0.012  255.967  258.004
 calculate_rho_elec                 159 10.1    0.021    0.040  236.126  238.488
 fft_wrap_pw1pw2_600               1962 14.3    0.162    0.205  230.461  231.917
 mp_waitall_1                    247309 14.5  166.703  227.495  166.703  227.495
 copy_fm_to_dbcsr                  1018 10.5    0.003    0.014  205.227  210.336
 integrate_v_rspace                 156  9.8    0.003    0.005  201.173  204.343
 density_rs2pw                      159 11.1    0.006    0.031  201.682  202.530
 mp_alltoall_i22                   2372 12.3  185.539  195.963  185.539  195.963
 potential_pw2rs                    156 10.8    0.005    0.021  193.837  194.167
 tddfpt_apply_energy_diff            13  9.0    0.000    0.001  186.577  186.645
 mp_alltoall_d11v                  7431 12.6  162.675  179.235  162.675  179.235
 mp_sum_dv                         4487 10.2  175.234  179.147  175.234  179.147
 cp_fm_trace_a1b1t1_aa             3880  9.0    8.368   11.540  162.978  164.385
 dbcsr_desymmetrize_deep            663 11.1    0.011    0.039  155.912  162.239
 qs_ot_get_derivative_diag           19 10.0    0.000    0.000  154.386  154.858
 mp_alltoall_z11v                   945 17.0  142.669  145.126  142.669  145.126
 multiply_cannon_metrocomm3       23568 13.7    0.039    0.086   97.453  142.868
 xc_pw_derive                      1155 11.7    0.005    0.017  131.652  132.575
 tddfpt_compute_residual_vects       10  8.0    0.000    0.010  130.588  131.093
 tddfpt_apply_xc_analytic           130 10.0    0.058    0.082  130.459  130.856
 make_m2s                          2946 11.7    0.027    0.039  121.772  128.959
 make_images                       2946 12.7    8.223    8.892  121.135  127.033
 x_to_yz                           1088 16.0    3.145    3.501  120.214  121.278
 make_images_sizes                 2946 13.7    0.004    0.023  112.067  114.972
 mp_alltoall_i44                   2946 14.7  112.063  114.970  112.063  114.970
 yz_to_x                            875 16.8    0.170    0.271  103.251  104.970
 qs_ks_update_qs_env                 28  5.0    0.000    0.000  100.557  101.205
 rebuild_ks_matrix                   26  6.0    0.005    0.012  100.437  101.087
 qs_ks_build_kohn_sham_matrix        26  7.0    0.009    0.038  100.432  101.077
 xz_to_yz                           636 16.1    1.607    1.939   90.847   92.312
 yz_to_xz                           624 15.8    1.560    1.920   89.789   91.644
 mp_alltoall_i11v                  5790 12.4   88.705   91.213   88.705   91.213
 qs_ot_get_p                         28  7.9    0.000    0.000   89.545   90.515
 xc_pw_divergence                   156 11.7    0.002    0.002   74.025   74.947
 fft_wrap_pw1pw2_70                 315 14.0    0.003    0.003   73.646   74.511
 mp_cart_sub                       1334 12.1   68.656   71.940   68.656   71.940
 tddfpt_print_nto_analysis            2  7.0    0.002    0.012   70.459   70.666
 transfer_rs2pw                     884 12.0    0.005    0.027   67.248   68.325
 transfer_pw2rs                     867 11.8    0.003    0.003   67.242   68.099
 xc_calc_2nd_deriv_analytical       650 11.0    1.690    2.317   63.845   64.382
 fft_wrap_pw1pw2_30                 315 14.0    0.002    0.002   57.598   58.211
 mp_allgather_i34                  1473 12.7   56.073   57.852   56.073   57.852
 mp_sum_dm                          921 11.0   56.065   56.911   56.065   56.911
 multiply_cannon_metrocomm1       23568 13.7    0.020    0.032   21.956   52.726
 tddfpt_soc                           1  6.0    0.000    0.000   51.898   51.917
 tddfpt_soc_rcs                       1  7.0    0.011    0.036   51.898   51.917
 mp_sum_d                          1431  7.8   48.515   50.972   48.515   50.972
 qs_ot_p2m_diag                      20  9.0    0.003    0.023   49.509   50.488
 -------------------------------------------------------------------------------

 The number of warnings for this run is : 1
 
 -------------------------------------------------------------------------------
  **** **** ******  **  PROGRAM ENDED AT                 2024-01-12 14:50:52.811
 ***** ** ***  *** **   PROGRAM RAN ON                               nesh-srp100
 **    ****   ******    PROGRAM RAN BY                                  suphc355
 ***** **    ** ** **   PROGRAM PROCESS ID                               2625288
  **** **  *******  **  PROGRAM STOPPED IN /gxfs_work/cau/suphc355/homologes/HX/
                                           AE/F
