 DBCSR| CPU Multiplication driver                                           XSMM (U)
 DBCSR| Multrec recursion limit                                              512 (U)
 DBCSR| Multiplication stack size                                           1000 (D)
 DBCSR| Maximum elements for images                                    UNLIMITED (U)
 DBCSR| Multiplicative factor virtual images                                   1 (U)
 DBCSR| Use multiplication densification                                       T (D)
 DBCSR| Multiplication size stacks                                             3 (U)
 DBCSR| Use memory pool for CPU allocation                                     F (U)
 DBCSR| Number of 3D layers                                               SINGLE (U)
 DBCSR| Use MPI memory allocation                                              F (U)
 DBCSR| Use RMA algorithm                                                      F (U)
 DBCSR| Use Communication thread                                               T (U)
 DBCSR| Communication thread load                                             87 (D)
 DBCSR| MPI: My process id                                                     0
 DBCSR| MPI: Number of processes                                             128
 DBCSR| OMP: Current number of threads                                         1
 DBCSR| OMP: Max number of threads                                             1
 DBCSR| Split modifier for TAS multiplication algorithm                  1.0E+00 (U)


  **** **** ******  **  PROGRAM STARTED AT               2024-02-07 15:58:59.522
 ***** ** ***  *** **   PROGRAM STARTED ON                           nesh-srp218
 **    ****   ******    PROGRAM STARTED BY                              suphc355
 ***** **    ** ** **   PROGRAM PROCESS ID                               1295669
  **** **  *******  **  PROGRAM STARTED IN /gxfs_work/cau/suphc355/homologes/HX/
                                           AE/F

 CP2K| version string:                 CP2K version 2024.1 (Development Version)
 CP2K| source code revision number:                                  git:b6f9133
 CP2K| cp2kflags: omp libint fftw3 libxc libgrpp parallel mpi_f08 scalapack cosm
 CP2K|            a xsmm spglib mkl
 CP2K| is freely available from                            https://www.cp2k.org/
 CP2K| Program compiled at                          Fr 26. Jan 09:14:30 CET 2024
 CP2K| Program compiled on                                           nesh-login3
 CP2K| Program compiled for                                                local
 CP2K| Data directory path            /gxfs_home/cau/suphc355/software/cp2k/data
 CP2K| Input file name                                                AE_vel.inp
 
 GLOBAL| Force Environment number                                              1
 GLOBAL| Basis set file name                                 ../../../basis_zora
 GLOBAL| Potential file name                                           POTENTIAL
 GLOBAL| MM Potential file name                                     MM_POTENTIAL
 GLOBAL| Coordinate file name                                            opt.xyz
 GLOBAL| Method name                                                        CP2K
 GLOBAL| Project name                                                      HF_AE
 GLOBAL| Run type                                                         ENERGY
 GLOBAL| FFT library                                                       FFTW3
 GLOBAL| Diagonalization library                                       ScaLAPACK
 GLOBAL| DGEMM library                                                      BLAS
 GLOBAL| Orthonormality check for eigenvectors                          DISABLED
 GLOBAL| Matrix multiplication library                                     COSMA
 GLOBAL| All-to-all communication in single precision                          F
 GLOBAL| FFTs using library dependent lengths                                  F
 GLOBAL| Grid backend                                                       AUTO
 GLOBAL| Global print level                                               MEDIUM
 GLOBAL| MPI I/O enabled                                                       T
 GLOBAL| Total number of message passing processes                           128
 GLOBAL| Number of threads for this process                                    1
 GLOBAL| This output is from process                                           0
 GLOBAL| Stack size for threads created by OpenMP (OMP_STACKSIZE)        default
 GLOBAL| CPU model name                              Intel(R) Xeon(R) Gold 6426Y
 GLOBAL| CPUID                                                              1003

 MEMORY| system memory details [Kb]
 MEMORY|                        rank 0           min           max       average
 MEMORY| MemTotal            263786136     263785076     263786136     263785871
 MEMORY| MemFree             242608772     242334504     242609948     242495115
 MEMORY| Buffers                952012        952012       1013112        993138
 MEMORY| Cached                 982624        982616       1024952       1006841
 MEMORY| Slab                   686464        686464        718552        704894
 MEMORY| SReclaimable           193192        192712        218380        202084
 MEMORY| MemLikelyFree       244736600     244566632     244787424     244697178


 *** Fundamental physical constants (SI units) ***

 *** Literature: B. J. Mohr and B. N. Taylor,
 ***             CODATA recommended values of the fundamental physical
 ***             constants: 2006, Web Version 5.1
 ***             http://physics.nist.gov/constants

 Speed of light in vacuum [m/s]                             2.99792458000000E+08
 Magnetic constant or permeability of vacuum [N/A**2]       1.25663706143592E-06
 Electric constant or permittivity of vacuum [F/m]          8.85418781762039E-12
 Planck constant (h) [J*s]                                  6.62606896000000E-34
 Planck constant (h-bar) [J*s]                              1.05457162825177E-34
 Elementary charge [C]                                      1.60217648700000E-19
 Electron mass [kg]                                         9.10938215000000E-31
 Electron g factor [ ]                                     -2.00231930436220E+00
 Proton mass [kg]                                           1.67262163700000E-27
 Fine-structure constant                                    7.29735253760000E-03
 Rydberg constant [1/m]                                     1.09737315685270E+07
 Avogadro constant [1/mol]                                  6.02214179000000E+23
 Boltzmann constant [J/K]                                   1.38065040000000E-23
 Atomic mass unit [kg]                                      1.66053878200000E-27
 Bohr radius [m]                                            5.29177208590000E-11

 *** Conversion factors ***

 [u] -> [a.u.]                                              1.82288848426455E+03
 [Angstrom] -> [Bohr] = [a.u.]                              1.88972613288564E+00
 [a.u.] = [Bohr] -> [Angstrom]                              5.29177208590000E-01
 [a.u.] -> [s]                                              2.41888432650478E-17
 [a.u.] -> [fs]                                             2.41888432650478E-02
 [a.u.] -> [J]                                              4.35974393937059E-18
 [a.u.] -> [N]                                              8.23872205491840E-08
 [a.u.] -> [K]                                              3.15774647902944E+05
 [a.u.] -> [kJ/mol]                                         2.62549961709828E+03
 [a.u.] -> [kcal/mol]                                       6.27509468713739E+02
 [a.u.] -> [Pa]                                             2.94210107994716E+13
 [a.u.] -> [bar]                                            2.94210107994716E+08
 [a.u.] -> [atm]                                            2.90362800883016E+08
 [a.u.] -> [eV]                                             2.72113838565563E+01
 [a.u.] -> [Hz]                                             6.57968392072181E+15
 [a.u.] -> [1/cm] (wave numbers)                            2.19474631370540E+05
 [a.u./Bohr**2] -> [1/cm]                                   5.14048714338585E+03
 

 CELL_TOP| Volume [angstrom^3]:                                      8000.000000
 CELL_TOP| Vector a [angstrom    20.000     0.000     0.000   |a| =    20.000000
 CELL_TOP| Vector b [angstrom     0.000    20.000     0.000   |b| =    20.000000
 CELL_TOP| Vector c [angstrom     0.000     0.000    20.000   |c| =    20.000000
 CELL_TOP| Angle (b,c), alpha [degree]:                                90.000000
 CELL_TOP| Angle (a,c), beta  [degree]:                                90.000000
 CELL_TOP| Angle (a,b), gamma [degree]:                                90.000000
 CELL_TOP| Numerically orthorhombic:                                         YES
 CELL_TOP| Periodicity                                                      NONE
 
 GENERATE|  Preliminary Number of Bonds generated:                             0
 GENERATE|  Achieved consistency in connectivity generation.

 CELL| Volume [angstrom^3]:                                          8000.000000
 CELL| Vector a [angstrom]:      20.000     0.000     0.000   |a| =    20.000000
 CELL| Vector b [angstrom]:       0.000    20.000     0.000   |b| =    20.000000
 CELL| Vector c [angstrom]:       0.000     0.000    20.000   |c| =    20.000000
 CELL| Angle (b,c), alpha [degree]:                                    90.000000
 CELL| Angle (a,c), beta  [degree]:                                    90.000000
 CELL| Angle (a,b), gamma [degree]:                                    90.000000
 CELL| Numerically orthorhombic:                                             YES
 CELL| Periodicity                                                          NONE

 CELL_REF| Volume [angstrom^3]:                                      8000.000000
 CELL_REF| Vector a [angstrom    20.000     0.000     0.000   |a| =    20.000000
 CELL_REF| Vector b [angstrom     0.000    20.000     0.000   |b| =    20.000000
 CELL_REF| Vector c [angstrom     0.000     0.000    20.000   |c| =    20.000000
 CELL_REF| Angle (b,c), alpha [degree]:                                90.000000
 CELL_REF| Angle (a,c), beta  [degree]:                                90.000000
 CELL_REF| Angle (a,b), gamma [degree]:                                90.000000
 CELL_REF| Numerically orthorhombic:                                         YES
 CELL_REF| Periodicity                                                      NONE

 *******************************************************************************
 *******************************************************************************
 **                                                                           **
 **     #####                         ##              ##                      **
 **    ##   ##            ##          ##              ##                      **
 **   ##     ##                       ##            ######                    **
 **   ##     ##  ##   ##  ##   #####  ##  ##   ####   ##    #####    #####    **
 **   ##     ##  ##   ##  ##  ##      ## ##   ##      ##   ##   ##  ##   ##   **
 **   ##  ## ##  ##   ##  ##  ##      ####     ###    ##   ######   ######    **
 **    ##  ###   ##   ##  ##  ##      ## ##      ##   ##   ##       ##        **
 **     #######   #####   ##   #####  ##  ##  ####    ##    #####   ##        **
 **           ##                                                    ##        **
 **                                                                           **
 **                                                ... make the atoms dance   **
 **                                                                           **
 **            Copyright (C) by CP2K developers group (2000-2024)             **
 **                      J. Chem. Phys. 152, 194103 (2020)                    **
 **                                                                           **
 *******************************************************************************

 DFT| Spin restricted Kohn-Sham (RKS) calculation                            RKS
 DFT| Multiplicity                                                             1
 DFT| Number of spin states                                                    1
 DFT| Charge                                                                   0
 DFT| Self-interaction correction (SIC)                                       NO
 DFT| Cutoffs: density                                              1.000000E-10
 DFT|          gradient                                             1.000000E-10
 DFT|          tau                                                  1.000000E-10
 DFT|          cutoff_smoothing_range                               0.000000E+00
 DFT| XC density smoothing                                                  NONE
 DFT| XC derivatives                                                          PW

 FUNCTIONAL| PBE:
 FUNCTIONAL| J.P.Perdew, K.Burke, M.Ernzerhof, Phys. Rev. Letter, vol. 77, n 18,
 FUNCTIONAL|  pp. 3865-3868, (1996)sx=0.750sc=1.000{spin unpolarized}           


 QS| Method:                                                                GAPW
 QS| Density plane wave grid type                        NON-SPHERICAL FULLSPACE
 QS| Number of grid levels:                                                    5
 QS| Density cutoff [a.u.]:                                                600.0
 QS| Multi grid cutoff [a.u.]: 1) grid level                               600.0
 QS|                           2) grid level                               200.0
 QS|                           3) grid level                                66.7
 QS|                           4) grid level                                22.2
 QS|                           5) grid level                                 7.4
 QS| Grid level progression factor:                                          3.0
 QS| Relative density cutoff [a.u.]:                                        40.0
 QS| Interaction thresholds: eps_pgf_orb:                                1.0E-30
 QS|                         eps_filter_matrix:                          0.0E+00
 QS|                         eps_core_charge:                            1.0E-17
 QS|                         eps_rho_gspace:                             1.0E-15
 QS|                         eps_rho_rspace:                             1.0E-15
 QS|                         eps_gvg_rspace:                             3.2E-08
 QS|                         eps_ppl:                                    1.0E-02
 QS|                         eps_ppnl:                                   3.2E-10
 QS| GAPW|      One center basis from orbital basis primitives
 QS| GAPW|                   eps_fit:                                    1.0E-04
 QS| GAPW|                   eps_iso:                                    1.0E-12
 QS| GAPW|                   eps_svd:                                    1.0E-08
 QS| GAPW|                   eps_cpc:                                    1.0E-15
 QS| GAPW|   atom-r-grid: quadrature:                                     GC_LOG
 QS| GAPW|      atom-s-grid:  max l :                                          6
 QS| GAPW|      max_l_rho0 :                                                   2


 ATOMIC KIND INFORMATION

  1. Atomic kind: F                                     Number of atoms:       1

     Orbital Basis Set                                                  TZP-ZORA

       Number of orbital shell sets:                                          11
       Number of orbital shells:                                              11
       Number of primitive Cartesian functions:                               19
       Number of Cartesian basis functions:                                   36
       Number of spherical basis functions:                                   31
       Norm type:                                                              2

       Normalised Cartesian orbitals:

                        Set   Shell   Orbital            Exponent    Coefficient

                          1       1    1s            16736.043322       1.994950
                                                      2517.472669       3.563656
                                                       575.952179       5.910146
                                                       164.577357       8.676762
                                                        54.273857      10.420306

                          2       1    1s               19.679311       3.929352
                                                         7.495431       1.453737

                          3       1    1s                1.885680       1.146862

                          4       1    1s                0.979868       0.701917

                          5       1    1s                0.323853       0.305965

                          6       1    1px              80.496023       4.297928
                                                        18.653993       4.750053
                                                         5.702737       4.140073
                                                         1.955478       2.296188
                          6       1    1py              80.496023       4.297928
                                                        18.653993       4.750053
                                                         5.702737       4.140073
                                                         1.955478       2.296188
                          6       1    1pz              80.496023       4.297928
                                                        18.653993       4.750053
                                                         5.702737       4.140073
                                                         1.955478       2.296188

                          7       1    1px               0.682954       0.884971
                          7       1    1py               0.682954       0.884971
                          7       1    1pz               0.682954       0.884971

                          8       1    1px               0.220446       0.215312
                          8       1    1py               0.220446       0.215312
                          8       1    1pz               0.220446       0.215312

                          9       1    1dx2              3.181470      12.474070
                          9       1    1dxy              3.181470      21.605722
                          9       1    1dxz              3.181470      21.605722
                          9       1    1dy2              3.181470      12.474070
                          9       1    1dyz              3.181470      21.605722
                          9       1    1dz2              3.181470      12.474070

                         10       1    1dx2              0.890324       1.343132
                         10       1    1dxy              0.890324       2.326373
                         10       1    1dxz              0.890324       2.326373
                         10       1    1dy2              0.890324       1.343132
                         10       1    1dyz              0.890324       2.326373
                         10       1    1dz2              0.890324       1.343132

                         11       1    1fx3              1.993560       6.952170
                         11       1    1fx2y             1.993560      15.545525
                         11       1    1fx2z             1.993560      15.545525
                         11       1    1fxy2             1.993560      15.545525
                         11       1    1fxyz             1.993560      26.925639
                         11       1    1fxz2             1.993560      15.545525
                         11       1    1fy3              1.993560       6.952170
                         11       1    1fy2z             1.993560      15.545525
                         11       1    1fyz2             1.993560      15.545525
                         11       1    1fz3              1.993560       6.952170

       Atomic covalent radius [Angstrom]:                                  0.720

       Atomic van der Waals radius [Angstrom]:                             1.470

     The atoms of this atomic kind are PAW atoms (GAPW):
       Hard Gaussian function radius:                                      1.512
       Rho0 radius:                                                        1.512
       Maximum GTO radius used for PAW projector construction:            24.566

     GAPW Soft Basis Set                                           TZP-ZORA_soft

       Number of orbital shell sets:                                          11
       Number of orbital shells:                                              11
       Number of primitive Cartesian functions:                                9
       Number of Cartesian basis functions:                                   36
       Number of spherical basis functions:                                   31
       Norm type:                                                              2

       Normalised Cartesian orbitals:

                        Set   Shell   Orbital            Exponent    Coefficient

                          1       1    1s         

                          2       1    1s         

                          3       1    1s                1.885680       1.146862

                          4       1    1s                0.979868       0.701917

                          5       1    1s                0.323853       0.305965

                          6       1    1px               1.955478       2.296188
                          6       1    1py               1.955478       2.296188
                          6       1    1pz               1.955478       2.296188

                          7       1    1px               0.682954       0.884971
                          7       1    1py               0.682954       0.884971
                          7       1    1pz               0.682954       0.884971

                          8       1    1px               0.220446       0.215312
                          8       1    1py               0.220446       0.215312
                          8       1    1pz               0.220446       0.215312

                          9       1    1dx2              3.181470      12.474070
                          9       1    1dxy              3.181470      21.605722
                          9       1    1dxz              3.181470      21.605722
                          9       1    1dy2              3.181470      12.474070
                          9       1    1dyz              3.181470      21.605722
                          9       1    1dz2              3.181470      12.474070

                         10       1    1dx2              0.890324       1.343132
                         10       1    1dxy              0.890324       2.326373
                         10       1    1dxz              0.890324       2.326373
                         10       1    1dy2              0.890324       1.343132
                         10       1    1dyz              0.890324       2.326373
                         10       1    1dz2              0.890324       1.343132

                         11       1    1fx3              1.993560       6.952170
                         11       1    1fx2y             1.993560      15.545525
                         11       1    1fx2z             1.993560      15.545525
                         11       1    1fxy2             1.993560      15.545525
                         11       1    1fxyz             1.993560      26.925639
                         11       1    1fxz2             1.993560      15.545525
                         11       1    1fy3              1.993560       6.952170
                         11       1    1fy2z             1.993560      15.545525
                         11       1    1fyz2             1.993560      15.545525
                         11       1    1fz3              1.993560       6.952170

     AE Potential information for                                            ALL

       Description:                                       All-electron potential
                                          Krack, Parrinello, PCCP 2, 2105 (2000)

       Gaussian exponent of the core charge distribution:              10.470541
       Electronic configuration (s p d ...):                           4   5   0

  2. Atomic kind: H                                     Number of atoms:       1

     Orbital Basis Set                                                  TZP-ZORA

       Number of orbital shell sets:                                           6
       Number of orbital shells:                                               6
       Number of primitive Cartesian functions:                                8
       Number of Cartesian basis functions:                                   15
       Number of spherical basis functions:                                   14
       Norm type:                                                              2

       Normalised Cartesian orbitals:

                        Set   Shell   Orbital            Exponent    Coefficient

                          1       1    1s               34.877584       0.254499
                                                         5.233973       0.449285
                                                         1.185033       0.695456

                          2       1    1s                0.328339       0.309138

                          3       1    1s                0.110319       0.136426

                          4       1    1px               0.718844       0.943482
                          4       1    1py               0.718844       0.943482
                          4       1    1pz               0.718844       0.943482

                          5       1    1px               0.350000       0.383729
                          5       1    1py               0.350000       0.383729
                          5       1    1pz               0.350000       0.383729

                          6       1    1dx2              1.075060       1.868171
                          6       1    1dxy              1.075060       3.235768
                          6       1    1dxz              1.075060       3.235768
                          6       1    1dy2              1.075060       1.868171
                          6       1    1dyz              1.075060       3.235768
                          6       1    1dz2              1.075060       1.868171

       Atomic covalent radius [Angstrom]:                                  0.320

       Atomic van der Waals radius [Angstrom]:                             1.090

     The atoms of this atomic kind are PAW atoms (GAPW):
       Hard Gaussian function radius:                                      1.200
       Rho0 radius:                                                        1.200
       Maximum GTO radius used for PAW projector construction:            24.566

     GAPW Soft Basis Set                                           TZP-ZORA_soft

       Number of orbital shell sets:                                           6
       Number of orbital shells:                                               6
       Number of primitive Cartesian functions:                                7
       Number of Cartesian basis functions:                                   15
       Number of spherical basis functions:                                   14
       Norm type:                                                              2

       Normalised Cartesian orbitals:

                        Set   Shell   Orbital            Exponent    Coefficient

                          1       1    1s                5.233973       0.449285
                                                         1.185033       0.695456

                          2       1    1s                0.328339       0.309138

                          3       1    1s                0.110319       0.136426

                          4       1    1px               0.718844       0.943482
                          4       1    1py               0.718844       0.943482
                          4       1    1pz               0.718844       0.943482

                          5       1    1px               0.350000       0.383729
                          5       1    1py               0.350000       0.383729
                          5       1    1pz               0.350000       0.383729

                          6       1    1dx2              1.075060       1.868171
                          6       1    1dxy              1.075060       3.235768
                          6       1    1dxz              1.075060       3.235768
                          6       1    1dy2              1.075060       1.868171
                          6       1    1dyz              1.075060       3.235768
                          6       1    1dz2              1.075060       1.868171

     AE Potential information for                                            ALL

       Description:                                       All-electron potential
                                          Krack, Parrinello, PCCP 2, 2105 (2000)

       Gaussian exponent of the core charge distribution:              12.500000
       Electronic configuration (s p d ...):                           1   0   0


 MOLECULE KIND INFORMATION


 All atoms are their own molecule, skipping detailed information


 TOTAL NUMBERS AND MAXIMUM NUMBERS

  Total number of            - Atomic kinds:                                   2
                             - Atoms:                                          2
                             - Shell sets:                                    17
                             - Shells:                                        17
                             - Primitive Cartesian functions:                 27
                             - Cartesian basis functions:                     51
                             - Spherical basis functions:                     45

  Maximum angular momentum of the orbital basis functions:                     3


 MODULE QUICKSTEP: ATOMIC COORDINATES IN ANGSTROM

   Atom Kind Element         X             Y             Z       Z(eff)     Mass
      1    1 F     9      9.533795     10.000000     10.000000   9.0000  18.9984
      2    2 H     1     10.466205     10.000000     10.000000   1.0000   1.0079



 SCF PARAMETERS         Density guess:                                   RESTART
                        --------------------------------------------------------
                        max_scf:                                              20
                        max_scf_history:                                       0
                        max_diis:                                              4
                        --------------------------------------------------------
                        eps_scf:                                        1.00E-07
                        eps_scf_history:                                0.00E+00
                        eps_diis:                                       1.00E-01
                        eps_eigval:                                     1.00E-05
                        --------------------------------------------------------
                        level_shift [a.u.]:                             0.000000
                        --------------------------------------------------------
                        Outer loop SCF in use 
                        No variables optimised in outer loop
                        eps_scf                                         1.00E-07
                        max_scf                                               50
                        No outer loop optimization
                        step_size                                       5.00E-01

 PW_GRID| Information for grid number                                          1
 PW_GRID| Grid distributed over                                   128 processors
 PW_GRID| Real space group dimensions                                   128    1
 PW_GRID| the grid is blocked:                                                NO
 PW_GRID| Cutoff [a.u.]                                                   1200.0
 PW_GRID| spherical cutoff:                                                   NO
 PW_GRID|   Bounds   1           -300     299                Points:         600
 PW_GRID|   Bounds   2           -300     299                Points:         600
 PW_GRID|   Bounds   3           -300     299                Points:         600
 PW_GRID| Volume element (a.u.^3)  0.2499E-03     Volume (a.u.^3)     53986.6767
 PW_GRID| Grid span                                                    FULLSPACE
 PW_GRID|   Distribution                         Average         Max         Min
 PW_GRID|   G-Vectors                          1687500.0     1687800     1687200
 PW_GRID|   G-Rays                                2812.5        2813        2812
 PW_GRID|   Real Space Points                  1687500.0     1800000     1440000

 PW_GRID| Information for grid number                                          2
 PW_GRID| Number of the reference grid                                         1
 PW_GRID| Grid distributed over                                   128 processors
 PW_GRID| Real space group dimensions                                   128    1
 PW_GRID| the grid is blocked:                                                NO
 PW_GRID| Cutoff [a.u.]                                                    600.0
 PW_GRID| spherical cutoff:                                                   NO
 PW_GRID|   Bounds   1           -216     215                Points:         432
 PW_GRID|   Bounds   2           -216     215                Points:         432
 PW_GRID|   Bounds   3           -216     215                Points:         432
 PW_GRID| Volume element (a.u.^3)  0.6696E-03     Volume (a.u.^3)     53986.6767
 PW_GRID| Grid span                                                    FULLSPACE
 PW_GRID|   Distribution                         Average         Max         Min
 PW_GRID|   G-Vectors                           629856.0      630288      629424
 PW_GRID|   G-Rays                                1458.0        1459        1457
 PW_GRID|   Real Space Points                   629856.0      746496      559872

 PW_GRID| Information for grid number                                          3
 PW_GRID| Number of the reference grid                                         2
 PW_GRID| Grid distributed over                                   128 processors
 PW_GRID| Real space group dimensions                                   128    1
 PW_GRID| the grid is blocked:                                                NO
 PW_GRID| Cutoff [a.u.]                                                    200.0
 PW_GRID| spherical cutoff:                                                   NO
 PW_GRID|   Bounds   1           -121     121                Points:         243
 PW_GRID|   Bounds   2           -121     121                Points:         243
 PW_GRID|   Bounds   3           -121     121                Points:         243
 PW_GRID| Volume element (a.u.^3)  0.3762E-02     Volume (a.u.^3)     53986.6767
 PW_GRID| Grid span                                                    FULLSPACE
 PW_GRID|   Distribution                         Average         Max         Min
 PW_GRID|   G-Vectors                           112100.8      112266      111780
 PW_GRID|   G-Rays                                 461.3         462         460
 PW_GRID|   Real Space Points                   112100.8      118098       59049

 PW_GRID| Information for grid number                                          4
 PW_GRID| Number of the reference grid                                         2
 PW_GRID| Grid distributed over                                   128 processors
 PW_GRID| Real space group dimensions                                   128    1
 PW_GRID| the grid is blocked:                                                NO
 PW_GRID| Cutoff [a.u.]                                                     66.7
 PW_GRID| spherical cutoff:                                                   NO
 PW_GRID|   Bounds   1            -72      71                Points:         144
 PW_GRID|   Bounds   2            -72      71                Points:         144
 PW_GRID|   Bounds   3            -72      71                Points:         144
 PW_GRID| Volume element (a.u.^3)  0.1808E-01     Volume (a.u.^3)     53986.6767
 PW_GRID| Grid span                                                    FULLSPACE
 PW_GRID|   Distribution                         Average         Max         Min
 PW_GRID|   G-Vectors                            23328.0       23472       23184
 PW_GRID|   G-Rays                                 162.0         163         161
 PW_GRID|   Real Space Points                    23328.0       41472       20736

 PW_GRID| Information for grid number                                          5
 PW_GRID| Number of the reference grid                                         2
 PW_GRID| Grid distributed over                                   128 processors
 PW_GRID| Real space group dimensions                                     8   16
 PW_GRID| the grid is blocked:                                                NO
 PW_GRID| Cutoff [a.u.]                                                     22.2
 PW_GRID| spherical cutoff:                                                   NO
 PW_GRID|   Bounds   1            -40      40                Points:          81
 PW_GRID|   Bounds   2            -40      40                Points:          81
 PW_GRID|   Bounds   3            -40      40                Points:          81
 PW_GRID| Volume element (a.u.^3)  0.1016         Volume (a.u.^3)     53986.6767
 PW_GRID| Grid span                                                    FULLSPACE
 PW_GRID|   Distribution                         Average         Max         Min
 PW_GRID|   G-Vectors                             4151.9        4293        4050
 PW_GRID|   G-Rays                                  51.3          53          50
 PW_GRID|   Real Space Points                     4151.9        5346        4050

 PW_GRID| Information for grid number                                          6
 PW_GRID| Number of the reference grid                                         2
 PW_GRID| Grid distributed over                                   128 processors
 PW_GRID| Real space group dimensions                                     8   16
 PW_GRID| the grid is blocked:                                                NO
 PW_GRID| Cutoff [a.u.]                                                      7.4
 PW_GRID| spherical cutoff:                                                   NO
 PW_GRID|   Bounds   1            -24      23                Points:          48
 PW_GRID|   Bounds   2            -24      23                Points:          48
 PW_GRID|   Bounds   3            -24      23                Points:          48
 PW_GRID| Volume element (a.u.^3)  0.4882         Volume (a.u.^3)     53986.6767
 PW_GRID| Grid span                                                    FULLSPACE
 PW_GRID|   Distribution                         Average         Max         Min
 PW_GRID|   G-Vectors                              864.0         912         816
 PW_GRID|   G-Rays                                  18.0          19          17
 PW_GRID|   Real Space Points                      864.0         864         864

 POISSON| Solver                                          Martyna-Tuckerman (MT)
 POISSON| MT| Alpha                                                        7.000
 POISSON| MT| Relative cutoff                                                2.0
 POISSON| Periodicity                                                       NONE

 RS_GRID| Information for grid number                                          2
 RS_GRID|   Bounds   1           -216     215                Points:         432
 RS_GRID|   Bounds   2           -216     215                Points:         432
 RS_GRID|   Bounds   3           -216     215                Points:         432
 RS_GRID| Real space distribution over                                  4 groups
 RS_GRID| Real space distribution along direction                              1
 RS_GRID| Border size                                                         34
 RS_GRID| Real space distribution over                                  4 groups
 RS_GRID| Real space distribution along direction                              2
 RS_GRID| Border size                                                         34
 RS_GRID| Real space distribution over                                  8 groups
 RS_GRID| Real space distribution along direction                              3
 RS_GRID| Border size                                                         34
 RS_GRID|   Distribution                         Average         Max         Min
 RS_GRID|   Planes                                 176.0         176         176
 RS_GRID|   Distribution                         Average         Max         Min
 RS_GRID|   Planes                                 176.0         176         176
 RS_GRID|   Distribution                         Average         Max         Min
 RS_GRID|   Planes                                 122.0         122         122

 RS_GRID| Information for grid number                                          3
 RS_GRID|   Bounds   1           -121     121                Points:         243
 RS_GRID|   Bounds   2           -121     121                Points:         243
 RS_GRID|   Bounds   3           -121     121                Points:         243
 RS_GRID| Real space distribution over                                  4 groups
 RS_GRID| Real space distribution along direction                              1
 RS_GRID| Border size                                                         34
 RS_GRID| Real space distribution over                                  4 groups
 RS_GRID| Real space distribution along direction                              2
 RS_GRID| Border size                                                         34
 RS_GRID| Real space distribution over                                  8 groups
 RS_GRID| Real space distribution along direction                              3
 RS_GRID| Border size                                                         34
 RS_GRID|   Distribution                         Average         Max         Min
 RS_GRID|   Planes                                 128.8         129         128
 RS_GRID|   Distribution                         Average         Max         Min
 RS_GRID|   Planes                                 128.8         129         128
 RS_GRID|   Distribution                         Average         Max         Min
 RS_GRID|   Planes                                  98.4          99          98

 RS_GRID| Information for grid number                                          4
 RS_GRID|   Bounds   1            -72      71                Points:         144
 RS_GRID|   Bounds   2            -72      71                Points:         144
 RS_GRID|   Bounds   3            -72      71                Points:         144
 RS_GRID| Real space fully replicated
 RS_GRID| Group size                                                           1

 RS_GRID| Information for grid number                                          5
 RS_GRID|   Bounds   1            -40      40                Points:          81
 RS_GRID|   Bounds   2            -40      40                Points:          81
 RS_GRID|   Bounds   3            -40      40                Points:          81
 RS_GRID| Real space fully replicated
 RS_GRID| Group size                                                           1

 RS_GRID| Information for grid number                                          6
 RS_GRID|   Bounds   1            -24      23                Points:          48
 RS_GRID|   Bounds   2            -24      23                Points:          48
 RS_GRID|   Bounds   3            -24      23                Points:          48
 RS_GRID| Real space fully replicated
 RS_GRID| Group size                                                           1

  HFX_INFO| Replica ID:                                                        1
  HFX_INFO| FRACTION:                                               0.2500000000
  HFX_INFO| Interaction Potential:                                       COULOMB
  HFX_INFO| EPS_SCHWARZ:                                                 1.0E-10
  HFX_INFO| EPS_SCHWARZ_FORCES                                           1.0E-06
  HFX_INFO| EPS_STORAGE_SCALING:                                         1.0E+00
  HFX_INFO| NBINS:                                                            64
  HFX_INFO| BLOCK_SIZE:                                                        1
  HFX_INFO| Number of periodic shells considered:                           NONE
  HFX_INFO| Number of periodic cells considered:                            NONE


 Number of electrons:                                                         10
 Number of occupied orbitals:                                                  5
 Number of molecular orbitals:                                                 5

 Number of orbital functions:                                                 45
 Number of independent orbital functions:                                     45

 Extrapolation method: initial_guess


 SCF WAVEFUNCTION OPTIMIZATION

  ----------------------------------- OT ---------------------------------------
  Minimizer      : DIIS                : direct inversion
                                         in the iterative subspace
                                         using   7 DIIS vectors
                                         safer DIIS on
  Preconditioner : FULL_ALL            : diagonalization, state selective
  Precond_solver : DEFAULT
  stepsize       :    0.15000000                  energy_gap     :    0.08000000
  eps_taylor     :   0.10000E-15                  max_taylor     :             4
  ----------------------------------- OT ---------------------------------------

  Step     Update method      Time    Convergence         Total energy    Change
  ------------------------------------------------------------------------------

  HFX_MEM_INFO| Est. max. program size before HFX [MiB]:                     913
  HFX_MEM_INFO| Number of cart. primitive ERI's calculated:             10091794
  HFX_MEM_INFO| Number of sph. ERI's calculated:                         1840787
  HFX_MEM_INFO| Number of sph. ERI's stored in-core:                     1840787
  HFX_MEM_INFO| Number of sph. ERI's stored on disk:                           0
  HFX_MEM_INFO| Number of sph. ERI's calculated on the fly:                    0
  HFX_MEM_INFO| Total memory consumption ERI's RAM [MiB]:                      7
  HFX_MEM_INFO| Whereof max-vals [MiB]:                                        2
  HFX_MEM_INFO| Total compression factor ERI's RAM:                         2.11
  HFX_MEM_INFO| Total memory consumption ERI's disk [MiB]:                     0
  HFX_MEM_INFO| Total compression factor ERI's disk:                        0.00
  HFX_MEM_INFO| Size of density/Fock matrix [MiB]:                             0
  HFX_MEM_INFO| Size of buffers [MiB]:                                         0
  HFX_MEM_INFO| Est. max. program size after HFX  [MiB]:                     907

     1 OT DIIS     0.15E+00   86.1     7.7056E-09      -100.3899499177 -1.00E+02

  *** SCF run converged in     1 steps ***


  Electronic density on regular grids:         -7.2213213766        2.7786786234
  Core density on regular grids:               10.0000000000        0.0000000000
  Hard and soft densities (Lebedev):          -13.4258652512      -10.6471871504
  Total Rho_soft + Rho1_hard - Rho1_soft       -9.9999994773
  Total charge density (r-space):               0.0000005227
  Total Rho_soft + Rho0_soft (g-space):         0.0000004055

  Overlap energy of the core charge distribution:               0.00000001385988
  Self energy of the core charge distribution:               -105.97386364366757
  Core Hamiltonian energy:                                     -4.15610682010068
  Hartree energy:                                              21.77745487540531
  Exchange-correlation energy:                                 -3.17392822116775
  Hartree-Fock Exchange energy:                                -2.59964944949786

  GAPW| Exc from hard and soft atomic rho1:                    -4.95931966426064
  GAPW| local Eh = 1 center integrals:                         -1.30453700824710

  Total energy:                                              -100.38994991767643

  outer SCF iter =    1 RMS gradient =   0.77E-08 energy =       -100.3899499177
  outer SCF loop converged in   1 iterations or    1 steps


 !-----------------------------------------------------------------------------!
                     Mulliken Population Analysis

 #  Atom  Element  Kind  Atomic population                           Net charge
       1     F        1          9.333391                             -0.333391
       2     H        2          0.666609                              0.333391
 # Total charge                             10.000000                  0.000000

 !-----------------------------------------------------------------------------!

 !-----------------------------------------------------------------------------!
                           Hirshfeld Charges

  #Atom  Element  Kind  Ref Charge     Population                    Net charge
      1       F      1       9.000          9.649                        -0.649
      2       H      2       1.000          0.351                         0.649

  Total Charge                                                            0.000
 !-----------------------------------------------------------------------------!

 *******************************************************************************
 **                                                                           **
 **         ######## #######   #######   ######## #######  ########           **
 **            ##    ##     ## ##     ## ##       ##   ##     ##              **
 **            ##    ##     ## ##     ## ######   #######     ##              **
 **            ##    ##     ## ##     ## ##       ##          ##              **
 **            ##    #######   #######   ##       ##          ##              **
 **                                                                           **
 *******************************************************************************
 KERNEL|                                                                    FULL
 FUNCTIONAL| PBE:
 FUNCTIONAL| J.P.Perdew, K.Burke, M.Ernzerhof, Phys. Rev. Letter, vol. 77, n 18,
 FUNCTIONAL|  pp. 3865-3868, (1996)sx=0.750sc=1.000{spin unpolarized}           
 KERNEL|                                                          Exact Exchange
 KERNEL| Spin symmetry of excitations                                    Triplet
 TDDFPT| Number of states calculated                                          10
 TDDFPT| Number of Davidson iterations                                        20
 TDDFPT| Davidson iteration convergence                                0.100E-07
 TDDFPT| Max. number of Krylov space vectors                                  60
 TDDFPT| Molecular Orbitals:        Spin       AOs       Occ      Virt     Total
 TDDFPT|                               1        45         5        40        45

 *******************************************************************************
 **                                                                           **
 **                            ####### ####### #######                        **
 **                        #   ##      ##   ## ##                             **
 **                       ###  ######  ##   ## ##                             **
 **                        #       ##  ##   ## ##                             **
 **                            ######  ####### #######                        **
 **                 Based on the xas module from Augustin Bussy               **
 *******************************************************************************
 
 -------------------------------------------------------------------------------
 -                      TDDFPT TRIPLET ENERGIES                                 -
 -------------------------------------------------------------------------------
 
 -------------------------------------------------------------------------------
 -                            TDDFPT Initial Guess                             -
 -------------------------------------------------------------------------------
          State         Occupied      ->      Virtual          Excitation
          number         orbital              orbital          energy (eV)
 -------------------------------------------------------------------------------
             1                5                    6             12.66884
             2                4                    6             12.66884
             3                3                    6             16.32047
             4                5                    7             21.81707
             5                4                    7             21.81707
             6                5                    8             25.30662
             7                4                    8             25.30662
             8                3                    7             25.46870
             9                5                    9             26.16850
            10                5                   10             26.16850

      Number of active states:                                        200
 -------------------------------------------------------------------------------
 
 -------------------------------------------------------------------------------
 -                      TDDFPT WAVEFUNCTION OPTIMIZATION                       -
 -------------------------------------------------------------------------------

          Step            Time         Convergence           Conv. states
 -------------------------------------------------------------------------------

    State    Exc. energy (eV)      Convergence (eV)
        1       9.8020696            -2.8668E+00
        2       9.8020696            -2.8668E+00
        3      12.9210500            -3.3994E+00
        4      18.6977482            -3.1193E+00
        5      18.6977482            -3.1193E+00
        6      21.5202279            -3.7864E+00
        7      21.9632335            -3.3434E+00
        8      22.2665767            -3.2021E+00
        9      22.2665768            -3.9019E+00
       10      22.6154846            -3.5530E+00
 
             1           523.6          1.4339E-01                      0

    State    Exc. energy (eV)      Convergence (eV)
        1       9.7165186            -8.5551E-02
        2       9.7165186            -8.5551E-02
        3      12.7941339            -1.2692E-01
        4      18.6074349            -9.0313E-02
        5      18.6074349            -9.0313E-02
        6      21.2387531            -2.8147E-01
        7      21.7842663            -1.7897E-01
        8      22.2056615            -6.0915E-02
        9      22.2056616            -6.0915E-02
       10      22.3474264            -2.6806E-01
 
             2           542.1          1.0344E-02                      0

    State    Exc. energy (eV)      Convergence (eV)
        1       9.7164133            -1.0531E-04
        2       9.7164133            -1.0531E-04
        3      12.7935072            -6.2668E-04
        4      18.6065137            -9.2118E-04
        5      18.6065137            -9.2118E-04
        6      21.1221807            -1.1657E-01
        7      21.7001747            -8.4092E-02
        8      22.1032795            -1.0238E-01
        9      22.2029655            -2.6961E-03
       10      22.2029655            -1.4446E-01
 
             3           505.7          5.3088E-03                      0

    State    Exc. energy (eV)      Convergence (eV)
        1       9.7164131            -1.6801E-07
        2       9.7164132            -1.6801E-07
        3      12.7935043            -2.8859E-06
        4      18.6065070            -6.6920E-06
        5      18.6065070            -6.6920E-06
        6      21.0853057            -3.6875E-02
        7      21.6506528            -4.9522E-02
        8      22.0886533            -1.4626E-02
        9      22.0955910            -1.0737E-01
       10      22.2029322            -3.3351E-05
 
             4           531.4          3.9459E-03                      2

    State    Exc. energy (eV)      Convergence (eV)
        1       9.7164131            -1.4676E-10
        2       9.7164132            -1.4676E-10
        3      12.7935043            -5.4694E-09
        4      18.6065070            -1.0889E-08
        5      18.6065070            -1.0889E-08
        6      21.0843891            -9.1658E-04
        7      21.6488683            -1.7845E-03
        8      22.0885481            -1.0523E-04
        9      22.0885873            -7.0036E-03
       10      22.2029321            -9.6498E-08
 
             5           512.1          2.5738E-04                      6

    State    Exc. energy (eV)      Convergence (eV)
        1       9.7164131            -1.6163E-13
        2       9.7164132            -1.6465E-13
        3      12.7935043            -1.3362E-11
        4      18.6065070            -1.8957E-11
        5      18.6065070            -1.8963E-11
        6      21.0843882            -9.1031E-07
        7      21.6488649            -3.4296E-06
        8      22.0885443            -3.8135E-06
        9      22.0885451            -4.2276E-05
       10      22.2029321            -1.6432E-10
 
             6           467.0          1.5536E-06                      6
 ------------------------- Restart Davidson iterations -------------------------

    State    Exc. energy (eV)      Convergence (eV)
        1       9.7164131             1.5105E-14
        2       9.7164132             1.8126E-14
        3      12.7935043             4.5316E-15
        4      18.6065070             1.2084E-14
        5      18.6065070            -2.4169E-14
        6      21.0843882            -6.0421E-15
        7      21.6488649             0.0000E+00
        8      22.0885443             1.8126E-14
        9      22.0885451             2.1147E-14
       10      22.2029321            -1.8126E-14
 
             7           454.0          8.8818E-16                     10
 
 -------------------------------------------------------------------------------
 -  TDDFPT run converged in 7 iteration(s) 
 -------------------------------------------------------------------------------

 R-TDDFPT states of multiplicity 3
 Transition dipoles calculated using velocity formulation

         State    Excitation        Transition dipole (a.u.)        Oscillator
         number   energy (eV)       x           y           z     strength (a.u.)
         ------------------------------------------------------------------------
 TDDFPT|      1       9.71641   0.0000E+00  0.0000E+00  0.0000E+00   0.00000E+00
 TDDFPT|      2       9.71641   0.0000E+00  0.0000E+00  0.0000E+00   0.00000E+00
 TDDFPT|      3      12.79350   0.0000E+00  0.0000E+00  0.0000E+00   0.00000E+00
 TDDFPT|      4      18.60651   0.0000E+00  0.0000E+00  0.0000E+00   0.00000E+00
 TDDFPT|      5      18.60651   0.0000E+00  0.0000E+00  0.0000E+00   0.00000E+00
 TDDFPT|      6      21.08439   0.0000E+00  0.0000E+00  0.0000E+00   0.00000E+00
 TDDFPT|      7      21.64886   0.0000E+00  0.0000E+00  0.0000E+00   0.00000E+00
 TDDFPT|      8      22.08854   0.0000E+00  0.0000E+00  0.0000E+00   0.00000E+00
 TDDFPT|      9      22.08855   0.0000E+00  0.0000E+00  0.0000E+00   0.00000E+00
 TDDFPT|     10      22.20293   0.0000E+00  0.0000E+00  0.0000E+00   0.00000E+00

 TDDFPT : CheckSum  =  0.215129E+01
 
 -------------------------------------------------------------------------------
 -                            Excitation analysis                              -
 -------------------------------------------------------------------------------
        State             Occupied              Virtual             Excitation
        number             orbital              orbital             amplitude
 -------------------------------------------------------------------------------
             1   9.71641 eV
                                 5                    6              -0.993791
                                 5                    7              -0.096119
             2   9.71641 eV
                                 4                    6              -0.993791
                                 4                    7              -0.096119
             3  12.79350 eV
                                 3                    6               0.981739
                                 3                    7               0.174499
                                 3                   13              -0.050611
             4  18.60651 eV
                                 5                    7              -0.991219
                                 5                    6               0.097965
                                 5                    8              -0.057034
             5  18.60651 eV
                                 4                    7              -0.991219
                                 4                    6               0.097965
                                 4                    8              -0.057034
             6  21.08439 eV
                                 3                    7              -0.666359
                                 5                   10              -0.503015
                                 4                    9               0.503015
                                 3                    6               0.140500
                                 3                    8              -0.087166
                                 2                    6               0.074720
                                 5                   12              -0.070976
                                 4                   11              -0.070976
             7  21.64886 eV
                                 3                    7              -0.716366
                                 5                   10               0.480754
                                 4                    9              -0.480754
                                 3                    6               0.114032
                                 4                   11               0.059737
                                 5                   12               0.059735
             8  22.08854 eV
                                 5                   10              -0.553255
                                 4                    9              -0.553254
                                 5                    9              -0.434296
                                 4                   10               0.434293
                                 4                   11               0.054746
                                 5                   12              -0.054729
             9  22.08855 eV
                                 5                    9              -0.553257
                                 4                   10               0.553253
                                 5                   10               0.434295
                                 4                    9               0.434294
                                 4                   12               0.054745
                                 5                   11               0.054729
            10  22.20293 eV
                                 5                    8              -0.995196
                                 3                   10              -0.062061
                                 5                    7               0.060135
 -------------------------------------------------------------------------------
 
 -------------------------------------------------------------------------------
 -                            Natural Orbital analysis                         -
 -------------------------------------------------------------------------------
   STATE NR.      1             9.71641 eV
     Particle-Hole state: 1   Spin:1     Eigenvalue: 0.99946   Sum Eigv: 0.99946
   STATE NR.      2             9.71641 eV
     Particle-Hole state: 1   Spin:1     Eigenvalue: 0.99946   Sum Eigv: 0.99946
   STATE NR.      3            12.79350 eV
     Particle-Hole state: 1   Spin:1     Eigenvalue: 0.99880   Sum Eigv: 0.99880
   STATE NR.      4            18.60651 eV
     Particle-Hole state: 1   Spin:1     Eigenvalue: 0.99820   Sum Eigv: 0.99820
   STATE NR.      5            18.60651 eV
     Particle-Hole state: 1   Spin:1     Eigenvalue: 0.99820   Sum Eigv: 0.99820
   STATE NR.      6            21.08439 eV
     Particle-Hole state: 1   Spin:1     Eigenvalue: 0.47518   Sum Eigv: 0.47518
     Particle-Hole state: 2   Spin:1     Eigenvalue: 0.25848   Sum Eigv: 0.73366
     Particle-Hole state: 3   Spin:1     Eigenvalue: 0.25848   Sum Eigv: 0.99214
   STATE NR.      7            21.64886 eV
     Particle-Hole state: 1   Spin:1     Eigenvalue: 0.52961   Sum Eigv: 0.52961
     Particle-Hole state: 2   Spin:1     Eigenvalue: 0.23492   Sum Eigv: 0.76453
     Particle-Hole state: 3   Spin:1     Eigenvalue: 0.23492   Sum Eigv: 0.99945
   STATE NR.      8            22.08854 eV
     Particle-Hole state: 1   Spin:1     Eigenvalue: 0.49993   Sum Eigv: 0.49993
     Particle-Hole state: 2   Spin:1     Eigenvalue: 0.49993   Sum Eigv: 0.99986
   STATE NR.      9            22.08855 eV
     Particle-Hole state: 1   Spin:1     Eigenvalue: 0.49993   Sum Eigv: 0.49993
     Particle-Hole state: 2   Spin:1     Eigenvalue: 0.49993   Sum Eigv: 0.99986
   STATE NR.     10            22.20293 eV
     Particle-Hole state: 1   Spin:1     Eigenvalue: 0.99503   Sum Eigv: 0.99503
 -------------------------------------------------------------------------------
 
                       triplet excitations finished                             
                                                                                
 -------------------------------------------------------------------------------
 -                      TDDFPT SINGLET ENERGIES                                -
 -------------------------------------------------------------------------------
 
 -------------------------------------------------------------------------------
 -                            TDDFPT Initial Guess                             -
 -------------------------------------------------------------------------------
          State         Occupied      ->      Virtual          Excitation
          number         orbital              orbital          energy (eV)
 -------------------------------------------------------------------------------
             1                5                    6             12.66884
             2                4                    6             12.66884
             3                3                    6             16.32047
             4                5                    7             21.81707
             5                4                    7             21.81707
             6                5                    8             25.30662
             7                4                    8             25.30662
             8                3                    7             25.46870
             9                5                    9             26.16850
            10                5                   10             26.16850

      Number of active states:                                        200
 -------------------------------------------------------------------------------
 
 -------------------------------------------------------------------------------
 -                      TDDFPT WAVEFUNCTION OPTIMIZATION                       -
 -------------------------------------------------------------------------------

          Step            Time         Convergence           Conv. states
 -------------------------------------------------------------------------------

    State    Exc. energy (eV)      Convergence (eV)
        1      10.4157024            -2.2531E+00
        2      10.4157025            -2.2531E+00
        3      15.0274587            -1.2930E+00
        4      19.2599526            -2.5571E+00
        5      19.2599526            -2.5571E+00
        6      22.7446162            -2.5620E+00
        7      22.7446162            -2.5620E+00
        8      23.0952499            -2.3734E+00
        9      23.5706386            -2.5979E+00
       10      30.1102332             3.9417E+00
 
             1           519.7          1.4486E-01                      0

    State    Exc. energy (eV)      Convergence (eV)
        1      10.3846369            -3.1066E-02
        2      10.3846369            -3.1066E-02
        3      14.8161399            -2.1132E-01
        4      19.1998294            -6.0123E-02
        5      19.1998294            -6.0123E-02
        6      22.6864260            -5.8190E-02
        7      22.6864260            -5.8190E-02
        8      23.0677358            -2.7514E-02
        9      23.2861494            -2.8449E-01
       10      24.8176589            -5.2926E+00
 
             2           539.3          1.9450E-01                      0

    State    Exc. energy (eV)      Convergence (eV)
        1      10.3845360            -1.0087E-04
        2      10.3845360            -1.0087E-04
        3      14.8123713            -3.7686E-03
        4      19.1995061            -3.2329E-04
        5      19.1995061            -3.2329E-04
        6      22.6856953            -7.3072E-04
        7      22.6856953            -7.3072E-04
        8      23.0588994            -8.8363E-03
        9      23.1468141            -1.3934E-01
       10      23.3648643            -1.4528E+00
 
             3           530.7          5.3389E-02                      0

    State    Exc. energy (eV)      Convergence (eV)
        1      10.3845360            -2.8677E-08
        2      10.3845360            -2.8677E-08
        3      14.8123565            -1.4765E-05
        4      19.1995052            -8.8736E-07
        5      19.1995053            -8.8736E-07
        6      22.6856604            -3.4927E-05
        7      22.6856604            -3.4927E-05
        8      23.0117540            -4.7145E-02
        9      23.1340589            -1.2755E-02
       10      23.1414528            -2.2341E-01
 
             4           563.5          8.2102E-03                      2

    State    Exc. energy (eV)      Convergence (eV)
        1      10.3845360            -7.9575E-12
        2      10.3845360            -7.9379E-12
        3      14.8123565            -4.4926E-08
        4      19.1995052            -4.4156E-10
        5      19.1995053            -4.4159E-10
        6      22.6856603            -9.5974E-08
        7      22.6856603            -9.5974E-08
        8      23.0061666            -5.5873E-03
        9      23.1332696            -7.8933E-04
       10      23.1333085            -8.1443E-03
 
             5           526.9          2.9930E-04                      7

    State    Exc. energy (eV)      Convergence (eV)
        1      10.3845360             7.5527E-15
        2      10.3845360            -4.5316E-15
        3      14.8123565            -5.0612E-11
        4      19.1995052            -1.2991E-13
        5      19.1995053            -1.0574E-13
        6      22.6856603            -1.8830E-11
        7      22.6856603            -1.8806E-11
        8      23.0061249            -4.1699E-05
        9      23.1332602            -9.3608E-06
       10      23.1332636            -4.4934E-05
 
             6           492.3          1.6513E-06                      7
 ------------------------- Restart Davidson iterations -------------------------

    State    Exc. energy (eV)      Convergence (eV)
        1      10.3845360             7.5527E-15
        2      10.3845360            -9.0632E-15
        3      14.8123565             0.0000E+00
        4      19.1995052             0.0000E+00
        5      19.1995053            -1.5105E-14
        6      22.6856603            -2.1147E-14
        7      22.6856603             2.7190E-14
        8      23.0061249            -6.0421E-15
        9      23.1332602            -6.0421E-15
       10      23.1332636             0.0000E+00
 
             7           481.9          9.9920E-16                     10
 
 -------------------------------------------------------------------------------
 -  TDDFPT run converged in 7 iteration(s) 
 -------------------------------------------------------------------------------

 R-TDDFPT states of multiplicity 1
 Transition dipoles calculated using velocity formulation

         State    Excitation        Transition dipole (a.u.)        Oscillator
         number   energy (eV)       x           y           z     strength (a.u.)
         ------------------------------------------------------------------------
 TDDFPT|      1      10.38454  -4.6817E-09 -3.2393E-01  1.6353E-01   3.34989E-02
 TDDFPT|      2      10.38454   1.0050E-08  1.6353E-01  3.2393E-01   3.34989E-02
 TDDFPT|      3      14.81236   7.0223E-01 -1.5133E-08 -9.9594E-09   1.78952E-01
 TDDFPT|      4      19.19951  -4.3473E-09 -3.0278E-01  1.5263E-01   5.40794E-02
 TDDFPT|      5      19.19951   6.0378E-09  1.5263E-01  3.0278E-01   5.40794E-02
 TDDFPT|      6      22.68566   2.6504E-10  2.4473E-02 -1.2393E-02   4.18231E-04
 TDDFPT|      7      22.68566  -2.9274E-10 -1.2393E-02 -2.4473E-02   4.18231E-04
 TDDFPT|      8      23.00612   4.7516E-11 -3.7908E-10  2.4187E-10   1.15244E-19
 TDDFPT|      9      23.13326   3.8990E-07 -6.0881E-11  7.5213E-11   8.61599E-14
 TDDFPT|     10      23.13326   5.2070E-07  5.2124E-11  6.7346E-11   1.53666E-13

 TDDFPT : CheckSum  =  0.226573E+01
 
 -------------------------------------------------------------------------------
 -                            Excitation analysis                              -
 -------------------------------------------------------------------------------
        State             Occupied              Virtual             Excitation
        number             orbital              orbital             amplitude
 -------------------------------------------------------------------------------
             1  10.38454 eV
                                 5                    6              -0.997854
                                 5                    7              -0.059199
             2  10.38454 eV
                                 4                    6               0.997854
                                 4                    7               0.059199
             3  14.81236 eV
                                 3                    6              -0.985388
                                 5                   10               0.104736
                                 4                    9              -0.104736
                                 3                    7               0.072304
             4  19.19951 eV
                                 5                    7               0.995938
                                 5                    6              -0.060484
             5  19.19951 eV
                                 4                    7              -0.995938
                                 4                    6               0.060484
             6  22.68566 eV
                                 5                    8               0.997371
             7  22.68566 eV
                                 4                    8              -0.997371
             8  23.00612 eV
                                 5                    9              -0.705849
                                 4                   10              -0.705849
             9  23.13326 eV
                                 4                   10               0.567967
                                 5                    9              -0.567966
                                 4                    9               0.420027
                                 5                   10               0.420027
            10  23.13326 eV
                                 4                    9               0.567967
                                 5                   10               0.567966
                                 4                   10              -0.420028
                                 5                    9               0.420027
 -------------------------------------------------------------------------------
 
 -------------------------------------------------------------------------------
 -                            Natural Orbital analysis                         -
 -------------------------------------------------------------------------------
   STATE NR.      1            10.38454 eV
     Particle-Hole state: 1   Spin:1     Eigenvalue: 0.99984   Sum Eigv: 0.99984
   STATE NR.      2            10.38454 eV
     Particle-Hole state: 1   Spin:1     Eigenvalue: 0.99984   Sum Eigv: 0.99984
   STATE NR.      3            14.81236 eV
     Particle-Hole state: 1   Spin:1     Eigenvalue: 0.97722   Sum Eigv: 0.97722
   STATE NR.      4            19.19951 eV
     Particle-Hole state: 1   Spin:1     Eigenvalue: 0.99895   Sum Eigv: 0.99895
   STATE NR.      5            19.19951 eV
     Particle-Hole state: 1   Spin:1     Eigenvalue: 0.99895   Sum Eigv: 0.99895
   STATE NR.      6            22.68566 eV
     Particle-Hole state: 1   Spin:1     Eigenvalue: 0.99773   Sum Eigv: 0.99773
   STATE NR.      7            22.68566 eV
     Particle-Hole state: 1   Spin:1     Eigenvalue: 0.99773   Sum Eigv: 0.99773
   STATE NR.      8            23.00612 eV
     Particle-Hole state: 1   Spin:1     Eigenvalue: 0.50000   Sum Eigv: 0.50000
     Particle-Hole state: 2   Spin:1     Eigenvalue: 0.50000   Sum Eigv: 1.00000
   STATE NR.      9            23.13326 eV
     Particle-Hole state: 1   Spin:1     Eigenvalue: 0.49997   Sum Eigv: 0.49997
     Particle-Hole state: 2   Spin:1     Eigenvalue: 0.49997   Sum Eigv: 0.99994
   STATE NR.     10            23.13326 eV
     Particle-Hole state: 1   Spin:1     Eigenvalue: 0.49997   Sum Eigv: 0.49997
     Particle-Hole state: 2   Spin:1     Eigenvalue: 0.49997   Sum Eigv: 0.99994
 -------------------------------------------------------------------------------
 
 -------------------------------------------------------------------------------
 -                         START SOC CALCULATIONS                              -
 -------------------------------------------------------------------------------
Starting from TDDFPT Excited States:
      STATE          SINGLET/eV         TRIPLET/eV
        1             10.38454         9.71641
        2             10.38454         9.71641
        3             14.81236        12.79350
        4             19.19951        18.60651
        5             19.19951        18.60651
        6             22.68566        21.08439
[...]
 flops    14 x     8 x    14                12544       0.0%    100.0%      0.0%
 flops    45 x     5 x     5                13500       0.0%    100.0%      0.0%
 flops    45 x     5 x    14                25200       0.0%    100.0%      0.0%
 flops    31 x     8 x    14                27776       0.0%    100.0%      0.0%
 flops    14 x     8 x    31                27776       0.0%    100.0%      0.0%
 flops    14 x    32 x    14                50176       0.0%    100.0%      0.0%
 flops    45 x     5 x    31                55800       0.0%    100.0%      0.0%
 flops    31 x     8 x    31                61504       0.0%    100.0%      0.0%
 flops    14 x    32 x    31               111104       0.0%    100.0%      0.0%
 flops    31 x    32 x    14               111104       0.0%    100.0%      0.0%
 flops    31 x    32 x    31               246016       0.0%    100.0%      0.0%
 flops    14 x    14 x     5               552720       0.0%    100.0%      0.0%
 flops     5 x     5 x    14               983500       0.0%    100.0%      0.0%
 flops    14 x    31 x     5              1223880       0.0%    100.0%      0.0%
 flops    14 x     5 x    14              2003120       0.0%    100.0%      0.0%
 flops     5 x     5 x    31              2177750       0.0%    100.0%      0.0%
 flops    31 x    31 x     5              2710020       0.0%    100.0%      0.0%
 flops    14 x     5 x    31              4162060       0.0%    100.0%      0.0%
 flops    31 x     5 x    14              4162060       0.0%    100.0%      0.0%
 flops    31 x     5 x    31              9821420       0.0%    100.0%      0.0%
 flops inhomo. stacks                           0       0.0%      0.0%      0.0%
 flops total                        28.539280E+06       0.0%    100.0%      0.0%
 flops max/rank                     22.392760E+06       0.0%    100.0%      0.0%
 matmuls inhomo. stacks                         0       0.0%      0.0%      0.0%
 matmuls total                               7665       0.0%    100.0%      0.0%
 number of processed stacks                  7105       0.0%    100.0%      0.0%
 average stack size                                     0.0       1.1       0.0
 marketing flops                    30.312250E+06
 -------------------------------------------------------------------------------
 # multiplications                           1213
 max memory usage/rank               1.506148E+09
 # max total images/rank                        2
 # max 3D layers                                1
 # MPI messages exchanged                 4502656
 MPI messages size (bytes):
  total size                       249.149360E+06
  min size                           0.000000E+00
  max size                          11.160000E+03
  average size                      55.333866E+00
 MPI breakdown and total messages size (bytes):
             size <=      128             4447188                        0
       128 < size <=     8192               42043                 99326360
      8192 < size <=    32768               13425                149823000
     32768 < size <=   131072                   0                        0
    131072 < size <=  4194304                   0                        0
   4194304 < size <= 16777216                   0                        0
  16777216 < size                               0                        0
 -------------------------------------------------------------------------------

 *** WARNING in dbcsr_mm.F:291 :: Using a non-square number of MPI ranks ***
 *** might lead to poor performance. Used ranks: 128 Suggested: 121 256  ***

 -------------------------------------------------------------------------------
 -                                                                             -
 -                      DBCSR MESSAGE PASSING PERFORMANCE                      -
 -                                                                             -
 -------------------------------------------------------------------------------
 ROUTINE             CALLS      AVE VOLUME [Bytes]
 MP_Bcast               22                     12.
 MP_Allreduce         4614                      8.
 MP_Alltoall         26750                  37758.
 MP_ISend            77478                    323.
 MP_IRecv            75150                    121.
 -------------------------------------------------------------------------------

 -------------------------------------------------------------------------------
 -                                                                             -
 -                                DBM STATISTICS                               -
 -                                                                             -
 -------------------------------------------------------------------------------
    M  x    N  x    K                                          COUNT     PERCENT
 -------------------------------------------------------------------------------

 -------------------------------------------------------------------------------
 -                                                                             -
 -                                GRID STATISTICS                              -
 -                                                                             -
 -------------------------------------------------------------------------------
 LP    KERNEL             BACKEND                              COUNT     PERCENT
 2     collocate general  CPU                                  18688      20.23%
 2     integrate general  CPU                                  18176      19.68%
 1     collocate ortho    CPU                                   7488       8.11%
 1     integrate ortho    CPU                                   7332       7.94%
 2     collocate ortho    CPU                                   7200       7.79%
 2     integrate ortho    CPU                                   7050       7.63%
 0     collocate ortho    CPU                                   5328       5.77%
 0     integrate ortho    CPU                                   5217       5.65%
 3     collocate ortho    CPU                                   4752       5.14%
 3     integrate ortho    CPU                                   4653       5.04%
 4     collocate ortho    CPU                                   2160       2.34%
 4     integrate ortho    CPU                                   2115       2.29%
 5     collocate ortho    CPU                                    720       0.78%
 5     integrate ortho    CPU                                    705       0.76%
 0     collocate general  CPU                                    256       0.28%
 0     integrate general  CPU                                    256       0.28%
 6     collocate ortho    CPU                                    144       0.16%
 6     integrate ortho    CPU                                    141       0.15%
 -------------------------------------------------------------------------------

 MEMORY| Estimated peak process memory [MiB]                                1437

 -------------------------------------------------------------------------------
 ----                             MULTIGRID INFO                            ----
 -------------------------------------------------------------------------------
 count for grid        1:         335517          cutoff [a.u.]          600.00
 count for grid        2:          81372          cutoff [a.u.]          200.00
 count for grid        3:          55741          cutoff [a.u.]           66.67
 count for grid        4:          11531          cutoff [a.u.]           22.22
 count for grid        5:            640          cutoff [a.u.]            7.41
 total gridlevel count  :         484801

 -------------------------------------------------------------------------------
 -                                                                             -
 -                         MESSAGE PASSING PERFORMANCE                         -
 -                                                                             -
 -------------------------------------------------------------------------------

 ROUTINE             CALLS      AVE VOLUME [Bytes]
 MP_Group                6
 MP_Bcast              739                 484737.
 MP_Allreduce         6633                   4885.
 MP_Sync              1471
 MP_Alltoall          3796               19141592.
 MP_SendRecv         54864                 127152.
 MP_ISendRecv       125349                  60850.
 MP_Wait            158900
 MP_comm_split          58
 MP_ISend            27778                 601477.
 MP_IRecv            30402                 549501.
 -------------------------------------------------------------------------------


 -------------------------------------------------------------------------------
 -                                                                             -
 -                           R E F E R E N C E S                               -
 -                                                                             -
 -------------------------------------------------------------------------------
 
 CP2K version 2024.1 (Development Version), the CP2K developers group (2024).
 CP2K is freely available from https://www.cp2k.org/ .

 Kuehne,Thomas D.; Iannuzzi,Marcella; Del Ben,Mauro;
 Rybkin,Vladimir V.; Seewald,Patrick; Stein,Frederick; Laino,Teodoro;
 Khaliullin,Rustam Z.; Schuett,Ole; Schiffmann,Florian; Golze,Dorothea;
 Wilhelm,Jan; Chulkov,Sergey; Bani-Hashemian,Mohammad Hossein;
 Weber,Valery; Borstnik,Urban; Taillefumier,Mathieu;
 Jakobovits,Alice Shoshana; Lazzaro,Alfio; Pabst,Hans; Mueller,Tiziano;
 Schade,Robert; Guidon,Manuel; Andermatt,Samuel; Holmberg,Nico;
 Schenter,Gregory K.; Hehn,Anna; Bussy,Augustin; Belleflamme,Fabian;
 Tabacchi,Gloria; Gloess,Andreas; Lass,Michael; Bethune,Iain;
 Mundy,Christopher J.; Plessl,Christian; Watkins,Matt;
 VandeVondele,Joost; Krack,Matthias; Hutter,Juerg. 
 The Journal of Chemical Physics, 152 (19), (2020). 
 CP2K: An electronic structure and molecular dynamics software package -
 Quickstep: Efficient and accurate electronic structure calculations.
 https://doi.org/10.1063/5.0007045

 Schuett, Ole; Messmer, Peter; Hutter, Juerg; VandeVondele, Joost. 
 Electronic Structure Calculations on Graphics Processing Units, John
 Wiley & Sons, Ltd, 173-190 (2016). 
 GPU-Accelerated Sparse Matrix-Matrix Multiplication for
 Linear Scaling Density Functional Theory.
 https://doi.org/10.1002/9781118670712.ch8

 Heinecke, A; Henry, G; Hutchinson, M; Pabst, H. 
 Proceedings of Intl. Supercomputing Conference, 981-991 (2016). 
 LIBXSMM: Accelerating Small Matrix Multiplications
 by Runtime Code Generation.
 https://doi.org/10.1109/SC.2016.83

 Borstnik, U; VandeVondele, J; Weber, V; Hutter, J. 
 PARALLEL COMPUTING, 40 (5-6), 47-58 (2014). 
 Sparse matrix multiplication: The distributed block-compressed sparse
 row library.
 https://doi.org/10.1016/j.parco.2014.03.012

 Hutter, J; Iannuzzi, M; Schiffmann, F; VandeVondele, J. 
 WIREs Comput Mol Sci., 4 (1), 15-25 (2014). 
 CP2K: atomistic simulations of condensed matter systems.
 https://doi.org/10.1002/wcms.1159

 Guidon, M; Hutter, J; VandeVondele, J. 
 JOURNAL OF CHEMICAL THEORY AND COMPUTATION, 5 (11), 3010-3021 (2009). 
 Robust Periodic Hartree-Fock Exchange for Large-Scale Simulations Using
 Gaussian Basis Sets.
 https://doi.org/10.1021/ct900494g

 Guidon, M; Schiffmann, F; Hutter, J; VandeVondele, J. 
 JOURNAL OF CHEMICAL PHYSICS, 128 (21), 214104 (2008). 
 Ab initio molecular dynamics using hybrid density functionals.
 https://doi.org/10.1063/1.2931945

 Frigo, M; Johnson, SG. 
 PROCEEDINGS OF THE IEEE, 93 (2), 216-231 (2005). 
 The design and implementation of FFTW3.
 https://doi.org/10.1109/JPROC.2004.840301

 Iannuzzi, M; Chassaing, T; Wallman, T; Hutter, J. 
 CHIMIA, 59 (7-8), 499-503 (2005). 
 Ground and excited state density functional calculations with the
 Gaussian and augmented-plane-wave method.
 https://doi.org/10.2533/000942905777676164

 VandeVondele, J; Hutter, J. 
 JOURNAL OF CHEMICAL PHYSICS, 118 (10), 4365-4369 (2003). 
 An efficient orbital transformation method for electronic structure
 calculations.
 https://doi.org/10.1063/1.1543154

 Martin,Richard L.. 
 The Journal of Chemical Physics, 118 (11), 4775-4777 (2003). 
 Natural transition orbitals.
 https://doi.org/10.1063/1.1558471

 Lippert, G; Hutter, J; Parrinello, M. 
 THEORETICAL CHEMISTRY ACCOUNTS, 103 (2), 124-140 (1999). 
 The Gaussian and augmented-plane-wave density functional method for ab
 initio molecular dynamics simulations.
 https://doi.org/10.1007/s002140050523

 Krack, M; Parrinello, M. 
 PHYSICAL CHEMISTRY CHEMICAL PHYSICS, 2 (10), 2105-2112 (2000). 
 All-electron ab-initio molecular dynamics.
 https://doi.org/10.1039/b001167n

 Martyna, GJ; Tuckerman, ME. 
 JOURNAL OF CHEMICAL PHYSICS, 110 (6), 2810-2821 (1999). 
 A reciprocal space based method for treating long range interactions in
 ab initio and force-field-based calculations in clusters.
 https://doi.org/10.1063/1.477923

 Perdew, JP; Burke, K; Ernzerhof, M. 
 PHYSICAL REVIEW LETTERS, 77 (18), 3865-3868 (1996). 
 Generalized gradient approximation made simple.
 https://doi.org/10.1103/PhysRevLett.77.3865


 -------------------------------------------------------------------------------
 -                                                                             -
 -                                T I M I N G                                  -
 -                                                                             -
 -------------------------------------------------------------------------------
 SUBROUTINE                       CALLS  ASD         SELF TIME        TOTAL TIME
                                MAXIMUM       AVERAGE  MAXIMUM  AVERAGE  MAXIMUM
 CP2K                                 1  1.0    4.529    4.653 8122.572 8122.621
 qs_energies                          1  2.0    0.020    0.061 8062.266 8062.343
 qs_energies_properties               1  3.0    0.003    0.045 7932.925 7933.003
 tddfpt                               1  4.0    0.010    0.062 7932.922 7933.003
 tddfpt_soc_energies                  1  5.0    0.000    0.013 7906.474 7906.550
 tddfpt_energies                      2  6.0    0.003    0.029 7824.812 7824.894
 tddfpt_davidson_solver               4  7.0    0.035    0.094 7274.522 7274.574
 tddfpt_compute_Aop_evects           14  8.0    0.012    0.066 6487.753 6487.982
 fhxc_kernel                         14  9.0    0.019    0.058 4308.934 4309.241
 mp_waitall_1                    264354 14.5 2267.129 2295.532 2267.129 2295.532
 tddfpt_apply_hfx                    14  9.0    0.006    0.026 1872.997 1873.114
 cp_dbcsr_sm_fm_multiply            881  9.5    0.011    0.023 1745.679 1758.881
 qs_rho_update_rho_low              144  9.9    0.014    0.060 1710.537 1713.159
 calculate_rho_elec                 144 10.9    0.319    0.496 1633.659 1635.503
 density_rs2pw                      144 11.9    0.014    0.046 1610.781 1614.139
 integrate_v_rspace                 141 10.0    0.006    0.042 1571.993 1574.852
 potential_pw2rs                    141 11.0    0.035    0.088 1533.169 1541.590
 transfer_rs2pw                     794 12.8    0.008    0.033 1474.802 1486.369
 transfer_pw2rs                     777 12.0    0.006    0.031 1430.712 1446.880
 dbcsr_complete_redistribute       2812 11.5    0.072    0.155 1399.282 1427.251
 integrate_four_center              281 11.0    0.076    0.171 1178.083 1181.530
 tddft_hfx_matrix                   280 10.0    0.009    0.034 1168.455 1171.951
 mp_sendrecv_dv                   54864 14.9 1113.210 1129.411 1113.210 1129.411
 copy_dbcsr_to_fm                   928 10.4    0.010    0.042  984.730  998.997
 transfer_pw2rs_70                  141 13.0    3.854    5.415  785.006  801.818
 copy_fm_to_dbcsr                  1880 10.6    0.005    0.017  662.258  690.869
 transfer_rs2pw_70                  144 13.9    2.494    4.883  665.125  685.820
 mp_alltoall_d11v                 11505 12.8  598.304  652.038  598.304  652.038
 pw_transfer                       3138 12.5    0.260    0.467  633.886  643.181
 fft_wrap_pw1pw2                   2923 13.6    0.029    0.079  632.879  642.144
 fft3d_ps                          2923 15.6   67.197   73.365  596.217  607.435
 dbcsr_multiply_generic            1213 11.3    0.048    0.089  568.360  586.651
 integrate_four_center_getP         281 12.0    0.034    0.082  583.596  586.620
 integrate_four_center_dist_KS      281 12.0    0.037    0.106  558.486  559.123
 mp_waitany                       27778 14.3  516.706  541.042  516.706  541.042
 tddfpt_orthonormalize_psi1_psi      16  7.9    0.009    0.049  515.701  517.362
 mp_alltoall_i11v                  9364 12.5  501.855  502.893  501.855  502.893
 tddfpt_print_nto_analysis            2  7.0    0.002    0.014  456.002  456.228
 fft_wrap_pw1pw2_600               1782 14.6    6.623    8.170  435.454  444.409
 mp_alltoall_z22v                  2923 17.6  425.363  438.488  425.363  438.488
 cp_fm_syevd                         58  8.6    0.004    0.037  413.948  414.487
 cp_dbcsr_sm_fm_multiply_core       881 10.5    0.002    0.023  355.163  372.409
 cp_fm_redistribute_end              58  9.6  186.982  336.722  190.244  338.764
 tddfpt_apply_xc_analytic           140 10.0    1.147    1.811  329.212  330.380
 mp_cart_sub                       1864 12.4  306.092  307.317  306.092  307.317
 tddfpt_apply_energy_diff            14  9.0    0.000    0.001  305.810  305.951
 cp_fm_syevd_base                    58  9.6  146.290  294.988  146.290  294.988
 cp_dbcsr_plus_fm_fm_t_native       141 10.0    0.006    0.034  289.028  290.804
 mp_sum_l                          4673 11.3  270.701  283.239  270.701  283.239
 cp_fm_geeig                         20  8.0    0.012    0.046  269.034  269.534
 xc_pw_derive                      1065 11.8    0.028    0.078  262.513  265.910
 dbcsr_desymmetrize_deep            928 11.4    0.017    0.053  249.220  264.141
 transfer_pw2rs_30                  141 13.0    0.420    0.729  242.608  257.054
 mp_sync                           1471 12.7  231.516  253.583  231.516  253.583
 mp_sum_dv                         4178 10.0  246.882  250.380  246.882  250.380
 transfer_rs2pw_30                  144 13.9    0.316    0.493  236.382  245.155
 cp_fm_trace_a1b1t1_aa             3880  9.0    0.007    0.019  229.117  232.052
 transfer_rs2pw_10                  144 13.9    0.073    0.242  214.586  223.064
 yz_to_x                           1073 17.1    5.560    6.681  209.337  220.965
 mp_alltoall_i22                   3740 12.5  194.577  220.067  194.577  220.067
 transfer_pw2rs_10                  141 13.0    0.099    0.187  198.759  209.070
 x_to_yz                           1280 16.1    8.946   12.094  204.711  206.879
 transfer_rs2pw_200                 144 13.9    1.218    1.525  181.197  189.361
 tddfpt_compute_residual_vects       10  8.0    0.000    0.000  187.989  188.409
 transfer_rs2pw_600                 218 13.5    5.814    7.444  177.503  180.627
 xc_calc_2nd_deriv_analytical       700 11.0   25.768   29.272  170.601  171.142
 multiply_cannon                   1213 12.3    0.068    0.103  158.739  170.016
 -------------------------------------------------------------------------------

 The number of warnings for this run is : 1
 
 -------------------------------------------------------------------------------
  **** **** ******  **  PROGRAM ENDED AT                 2024-02-07 18:20:08.562
 ***** ** ***  *** **   PROGRAM RAN ON                               nesh-srp218
 **    ****   ******    PROGRAM RAN BY                                  suphc355
 ***** **    ** ** **   PROGRAM PROCESS ID                               1295669
  **** **  *******  **  PROGRAM STOPPED IN /gxfs_work/cau/suphc355/homologes/HX/
                                           AE/F
