
                                 *****************
                                 * O   R   C   A *
                                 *****************

                                            #,                                       
                                            ###                                      
                                            ####                                     
                                            #####                                    
                                            ######                                   
                                           ########,                                 
                                     ,,################,,,,,                         
                               ,,#################################,,                 
                          ,,##########################################,,             
                       ,#########################################, ''#####,          
                    ,#############################################,,   '####,        
                  ,##################################################,,,,####,       
                ,###########''''           ''''###############################       
              ,#####''   ,,,,##########,,,,          '''####'''          '####       
            ,##' ,,,,###########################,,,                        '##       
           ' ,,###''''                  '''############,,,                           
         ,,##''                                '''############,,,,        ,,,,,,###''
      ,#''                                            '''#######################'''  
     '                                                          ''''####''''         
             ,#######,   #######,   ,#######,      ##                                
            ,#'     '#,  ##    ##  ,#'     '#,    #''#        ######   ,####,        
            ##       ##  ##   ,#'  ##            #'  '#       #        #'  '#        
            ##       ##  #######   ##           ,######,      #####,   #    #        
            '#,     ,#'  ##    ##  '#,     ,#' ,#      #,         ##   #,  ,#        
             '#######'   ##     ##  '#######'  #'      '#     #####' # '####'        



                  #######################################################
                  #                        -***-                        #
                  #          Department of theory and spectroscopy      #
                  #    Directorship and core code : Frank Neese         #
                  #        Max Planck Institute fuer Kohlenforschung    #
                  #                Kaiser Wilhelm Platz 1               #
                  #                 D-45470 Muelheim/Ruhr               #
                  #                      Germany                        #
                  #                                                     #
                  #                  All rights reserved                #
                  #                        -***-                        #
                  #######################################################


                         Program Version 5.0.4 -  RELEASE  -


 With contributions from (in alphabetic order):
   Daniel Aravena         : Magnetic Suceptibility
   Michael Atanasov       : Ab Initio Ligand Field Theory (pilot matlab implementation)
   Alexander A. Auer      : GIAO ZORA, VPT2 properties, NMR spectrum
   Ute Becker             : Parallelization
   Giovanni Bistoni       : ED, misc. LED, open-shell LED, HFLD
   Martin Brehm           : Molecular dynamics
   Dmytro Bykov           : SCF Hessian
   Vijay G. Chilkuri      : MRCI spin determinant printing, contributions to CSF-ICE
   Dipayan Datta          : RHF DLPNO-CCSD density
   Achintya Kumar Dutta   : EOM-CC, STEOM-CC
   Dmitry Ganyushin       : Spin-Orbit,Spin-Spin,Magnetic field MRCI
   Miquel Garcia          : C-PCM and meta-GGA Hessian, CC/C-PCM, Gaussian charge scheme
   Yang Guo               : DLPNO-NEVPT2, F12-NEVPT2, CIM, IAO-localization
   Andreas Hansen         : Spin unrestricted coupled pair/coupled cluster methods
   Benjamin Helmich-Paris : MC-RPA, TRAH-SCF, COSX integrals
   Lee Huntington         : MR-EOM, pCC
   Robert Izsak           : Overlap fitted RIJCOSX, COSX-SCS-MP3, EOM
   Marcus Kettner         : VPT2
   Christian Kollmar      : KDIIS, OOCD, Brueckner-CCSD(T), CCSD density, CASPT2, CASPT2-K
   Simone Kossmann        : Meta GGA functionals, TD-DFT gradient, OOMP2, MP2 Hessian
   Martin Krupicka        : Initial AUTO-CI
   Lucas Lang             : DCDCAS
   Marvin Lechner         : AUTO-CI (C++ implementation), FIC-MRCC
   Dagmar Lenk            : GEPOL surface, SMD
   Dimitrios Liakos       : Extrapolation schemes; Compound Job, initial MDCI parallelization
   Dimitrios Manganas     : Further ROCIS development; embedding schemes
   Dimitrios Pantazis     : SARC Basis sets
   Anastasios Papadopoulos: AUTO-CI, single reference methods and gradients
   Taras Petrenko         : DFT Hessian,TD-DFT gradient, ASA, ECA, R-Raman, ABS, FL, XAS/XES, NRVS
   Peter Pinski           : DLPNO-MP2, DLPNO-MP2 Gradient
   Christoph Reimann      : Effective Core Potentials
   Marius Retegan         : Local ZFS, SOC
   Christoph Riplinger    : Optimizer, TS searches, QM/MM, DLPNO-CCSD(T), (RO)-DLPNO pert. Triples
   Tobias Risthaus        : Range-separated hybrids, TD-DFT gradient, RPA, STAB
   Michael Roemelt        : Original ROCIS implementation
   Masaaki Saitow         : Open-shell DLPNO-CCSD energy and density
   Barbara Sandhoefer     : DKH picture change effects
   Avijit Sen             : IP-ROCIS
   Kantharuban Sivalingam : CASSCF convergence, NEVPT2, FIC-MRCI
   Bernardo de Souza      : ESD, SOC TD-DFT
   Georgi Stoychev        : AutoAux, RI-MP2 NMR, DLPNO-MP2 response
   Willem Van den Heuvel  : Paramagnetic NMR
   Boris Wezisla          : Elementary symmetry handling
   Frank Wennmohs         : Technical directorship


 We gratefully acknowledge several colleagues who have allowed us to
 interface, adapt or use parts of their codes:
   Stefan Grimme, W. Hujo, H. Kruse, P. Pracht,  : VdW corrections, initial TS optimization,
                  C. Bannwarth, S. Ehlert          DFT functionals, gCP, sTDA/sTD-DF
   Ed Valeev, F. Pavosevic, A. Kumar             : LibInt (2-el integral package), F12 methods
   Garnet Chan, S. Sharma, J. Yang, R. Olivares  : DMRG
   Ulf Ekstrom                                   : XCFun DFT Library
   Mihaly Kallay                                 : mrcc  (arbitrary order and MRCC methods)
   Jiri Pittner, Ondrej Demel                    : Mk-CCSD
   Frank Weinhold                                : gennbo (NPA and NBO analysis)
   Christopher J. Cramer and Donald G. Truhlar   : smd solvation model
   Lars Goerigk                                  : TD-DFT with DH, B97 family of functionals
   V. Asgeirsson, H. Jonsson                     : NEB implementation
   FAccTs GmbH                                   : IRC, NEB, NEB-TS, DLPNO-Multilevel, CI-OPT
                                                   MM, QMMM, 2- and 3-layer-ONIOM, Crystal-QMMM,
                                                   LR-CPCM, SF, NACMEs, symmetry and pop. for TD-DFT,
                                                   nearIR, NL-DFT gradient (VV10), updates on ESD,
                                                   ML-optimized integration grids
   S Lehtola, MJT Oliveira, MAL Marques          : LibXC Library
   Liviu Ungur et al                             : ANISO software


 Your calculation uses the libint2 library for the computation of 2-el integrals
 For citations please refer to: http://libint.valeyev.net

 Your ORCA version has been built with support for libXC version: 5.1.0
 For citations please refer to: https://tddft.org/programs/libxc/

 This ORCA versions uses:
   CBLAS   interface :  Fast vector & matrix operations
   LAPACKE interface :  Fast linear algebra routines
   SCALAPACK package :  Parallel linear algebra routines
   Shared memory     :  Shared parallel matrices
   BLAS/LAPACK       :  OpenBLAS 0.3.15  USE64BITINT DYNAMIC_ARCH NO_AFFINITY SkylakeX SINGLE_THREADED
        Core in use  :  SkylakeX
   Copyright (c) 2011-2014, The OpenBLAS Project


Reading of a custom orbital basis requested
Basis file: ../../../basis_orca
READING GTO-BASIS: HYDROGEN
READING GTO-BASIS: CARBON
READING GTO-BASIS: OXYGEN
READING GTO-BASIS: FLUORINE
READING GTO-BASIS: SULFUR
READING GTO-BASIS: CHLORINE
READING GTO-BASIS: SELENIUM
READING GTO-BASIS: BROMINE
READING GTO-BASIS: TELLURIUM
READING GTO-BASIS: IODINE
Basis read successfully!

================================================================================

----- Orbital basis set information -----
Basis read from file: ../../../basis_orca

================================================================================
                                        WARNINGS
                       Please study these warnings very carefully!
================================================================================

INFO   : Checking CIS options ...

WARNING: (CIS/TDDFT): Spin-orbit needs TRIPLETS set to TRUE
  ===> : ajusting flags

WARNING: CIS/ROCIS methods need fully converged wavefunctions
  ===> : Setting SCFConvForced true
         You can overwrite this default with %scf ConvForced false 


INFO   : the flag for use of the SHARK integral package has been found!

================================================================================
                                       INPUT FILE
================================================================================
NAME = orca.inp
|  1> !PBE0 nososcf NoRI
|  2> %SCF Guess HCore
|  3>      DIISMaxIt -1
|  4> end
|  5> %TDDFT NROOTS 10
|  6>        DOSOC TRUE
|  7> end
|  8> %basis
|  9>         GTOName "../../../basis_orca"
| 10> end
| 11> * xyz 0 1
| 12>   H         5.0501127267        4.0000000087        4.4485405158
| 13>   H         2.9498873254        4.0000000491        4.4485406930
| 14>   Se        3.9999999459        3.9999999428        3.4021117088
| 15> *
| 16> 
| 17>                          ****END OF INPUT****
================================================================================

                       ****************************
                       * Single Point Calculation *
                       ****************************

---------------------------------
CARTESIAN COORDINATES (ANGSTROEM)
---------------------------------
  H      5.050113    4.000000    4.448541
  H      2.949887    4.000000    4.448541
  Se     4.000000    4.000000    3.402112

----------------------------
CARTESIAN COORDINATES (A.U.)
----------------------------
  NO LB      ZA    FRAG     MASS         X           Y           Z
   0 H     1.0000    0     1.008    9.543330    7.558905    8.406523
   1 H     1.0000    0     1.008    5.574479    7.558905    8.406524
   2 Se   34.0000    0    78.960    7.558904    7.558904    6.429059

--------------------------------
INTERNAL COORDINATES (ANGSTROEM)
--------------------------------
 H      0   0   0     0.000000000000     0.00000000     0.00000000
 H      1   0   0     2.100225401300     0.00000000     0.00000000
 Se     1   2   0     1.482481062449    44.89932668     0.00000000

---------------------------
INTERNAL COORDINATES (A.U.)
---------------------------
 H      0   0   0     0.000000000000     0.00000000     0.00000000
 H      1   0   0     3.968850827962     0.00000000     0.00000000
 Se     1   2   0     2.801483206753    44.89932668     0.00000000

---------------------
BASIS SET INFORMATION
---------------------
There are 2 groups of distinct atoms

 Group   1 Type H   : 5s2p1d contracted to 3s2p1d pattern {311/11/1}
 Group   2 Type Se  : 16s13p6d2f1g contracted to 9s6p3d2f1g pattern {711121111/712111/411/11/1}

Atom   0H    basis set group =>   1
Atom   1H    basis set group =>   1
Atom   2Se   basis set group =>   2
------------------------------------------------------------------------------
                           ORCA GTO INTEGRAL CALCULATION
------------------------------------------------------------------------------
------------------------------------------------------------------------------
                   ___                                                        
                  /   \      - P O W E R E D   B Y -                         
                 /     \                                                     
                 |  |  |   _    _      __       _____    __    __             
                 |  |  |  | |  | |    /  \     |  _  \  |  |  /  |          
                  \  \/   | |  | |   /    \    | | | |  |  | /  /          
                 / \  \   | |__| |  /  /\  \   | |_| |  |  |/  /          
                |  |  |   |  __  | /  /__\  \  |    /   |      \           
                |  |  |   | |  | | |   __   |  |    \   |  |\   \          
                \     /   | |  | | |  |  |  |  | |\  \  |  | \   \       
                 \___/    |_|  |_| |__|  |__|  |_| \__\ |__|  \__/        
                                                                              
                      - O R C A' S   B I G   F R I E N D -                    
                                      &                                       
                       - I N T E G R A L  F E E D E R -                       
                                                                              
 v1 FN, 2020, v2 2021                                                         
------------------------------------------------------------------------------


Reading SHARK input file orca.SHARKINP.tmp ... ok
----------------------
SHARK INTEGRAL PACKAGE
----------------------

Number of atoms                             ...      3
Number of basis functions                   ...     93
Number of shells                            ...     33
Maximum angular momentum                    ...      4
Integral batch strategy                     ... SHARK/LIBINT Hybrid
RI-J (if used) integral strategy            ... SPLIT-RIJ (Revised 2003 algorithm where possible)
Printlevel                                  ...      1
Contraction scheme used                     ... SEGMENTED contraction
Coulomb Range Separation                    ... NOT USED
Exchange Range Separation                   ... NOT USED
Finite Nucleus Model                        ... NOT USED
Auxiliary Coulomb fitting basis             ... NOT available
Auxiliary J/K fitting basis                 ... NOT available
Auxiliary Correlation fitting basis         ... NOT available
Auxiliary 'external' fitting basis          ... NOT available
Integral threshold                          ...     1.000000e-10
Primitive cut-off                           ...     1.000000e-11
Primitive pair pre-selection threshold      ...     1.000000e-11

Calculating pre-screening integrals         ... done (  0.0 sec) Dimension = 33
Organizing shell pair data                  ... done (  0.0 sec)
Shell pair information
Total number of shell pairs                 ...       561
Shell pairs after pre-screening             ...       561
Total number of primitive shell pairs       ...      1541
Primitive shell pairs kept                  ...      1439
          la=0 lb=0:    120 shell pairs
          la=1 lb=0:    150 shell pairs
          la=1 lb=1:     55 shell pairs
          la=2 lb=0:     75 shell pairs
          la=2 lb=1:     50 shell pairs
          la=2 lb=2:     15 shell pairs
          la=3 lb=0:     30 shell pairs
          la=3 lb=1:     20 shell pairs
          la=3 lb=2:     10 shell pairs
          la=3 lb=3:      3 shell pairs
          la=4 lb=0:     15 shell pairs
          la=4 lb=1:     10 shell pairs
          la=4 lb=2:      5 shell pairs
          la=4 lb=3:      2 shell pairs
          la=4 lb=4:      1 shell pairs

Calculating one electron integrals          ... done (  0.0 sec)
Calculating Nuclear repulsion               ... done (  0.0 sec) ENN=     24.524818556632 Eh

SHARK setup successfully completed in   0.2 seconds

Maximum memory used throughout the entire GTOINT-calculation: 24.3 MB
-------------------------------------------------------------------------------
                                 ORCA SCF
-------------------------------------------------------------------------------

------------
SCF SETTINGS
------------
Hamiltonian:
 Density Functional     Method          .... DFT(GTOs)
 Exchange Functional    Exchange        .... PBE
   PBE kappa parameter   XKappa         ....  0.804000
   PBE mue parameter    XMuePBE         ....  0.219520
 Correlation Functional Correlation     .... PBE
   PBE beta parameter  CBetaPBE         ....  0.066725
 LDA part of GGA corr.  LDAOpt          .... PW91-LDA
 Gradients option       PostSCFGGA      .... off
 Hybrid DFT is turned on
   Fraction HF Exchange ScalHFX         ....  0.250000
   Scaling of DF-GGA-X  ScalDFX         ....  0.750000
   Scaling of DF-GGA-C  ScalDFC         ....  1.000000
   Scaling of DF-LDA-C  ScalLDAC        ....  1.000000
   Perturbative correction              ....  0.000000
   Density functional embedding theory  .... OFF
   NL short-range parameter             ....  6.900000


General Settings:
 Integral files         IntName         .... orca
 Hartree-Fock type      HFTyp           .... RHF
 Total Charge           Charge          ....    0
 Multiplicity           Mult            ....    1
 Number of Electrons    NEL             ....   36
 Basis Dimension        Dim             ....   93
 Nuclear Repulsion      ENuc            ....     24.5248185566 Eh

Convergence Acceleration:
 DIIS                   CNVDIIS         .... on
   Start iteration      DIISMaxIt       ....    -1
   Startup error        DIISStart       ....  0.200000
   # of expansion vecs  DIISMaxEq       ....     5
   Bias factor          DIISBfac        ....   1.050
   Max. coefficient     DIISMaxC        ....  10.000
 Trust-Rad. Augm. Hess. CNVTRAH         .... auto
   Auto Start mean grad. ratio tolernc. ....  1.125000
   Auto Start start iteration           ....    20
   Auto Start num. interpolation iter.  ....    10
   Max. Number of Micro iterations      ....    16
   Max. Number of Macro iterations      .... Maxiter - #DIIS iter
   Number of Davidson start vectors     ....     2
   Converg. threshold I  (grad. norm)   ....   5.000e-05
   Converg. threshold II (energy diff.) ....   1.000e-06
   Grad. Scal. Fac. for Micro threshold ....   0.100
   Minimum threshold for Micro iter.    ....   0.010
   NR start threshold (gradient norm)   ....   0.001
   Initial trust radius                 ....   0.400
   Minimum AH scaling param. (alpha)    ....   1.000
   Maximum AH scaling param. (alpha)    .... 1000.000
   Orbital update algorithm             .... Taylor
   White noise on init. David. guess    .... on
   Maximum white noise                  ....   0.010
   Quad. conv. algorithm                .... NR
 SOSCF                  CNVSOSCF        .... off
 Level Shifting         CNVShift        .... on
   Level shift para.    LevelShift      ....    0.2500
   Turn off err/grad.   ShiftErr        ....    0.0010
 Zerner damping         CNVZerner       .... off
 Static damping         CNVDamp         .... on
   Fraction old density DampFac         ....    0.7000
   Max. Damping (<1)    DampMax         ....    0.9800
   Min. Damping (>=0)   DampMin         ....    0.0000
   Turn off err/grad.   DampErr         ....    0.1000
 Fernandez-Rico         CNVRico         .... off

SCF Procedure:
 Maximum # iterations   MaxIter         ....   125
 SCF integral mode      SCFMode         .... Direct
   Integral package                     .... SHARK and LIBINT hybrid scheme
 Reset frequency        DirectResetFreq ....    20
 Integral Threshold     Thresh          ....  1.000e-10 Eh
 Primitive CutOff       TCut            ....  1.000e-11 Eh

Convergence Tolerance:
 Convergence Check Mode ConvCheckMode   .... Total+1el-Energy
 Convergence forced     ConvForced      .... 1
 Energy Change          TolE            ....  1.000e-06 Eh
 1-El. energy change                    ....  1.000e-03 Eh
 DIIS Error             TolErr          ....  1.000e-06


Diagonalization of the overlap matrix:
Smallest eigenvalue                        ... 1.047e-02
Time for diagonalization                   ...    0.001 sec
Threshold for overlap eigenvalues          ... 1.000e-08
Number of eigenvalues below threshold      ... 0
Time for construction of square roots      ...    0.002 sec
Total time needed                          ...    0.004 sec

--------------------
INITIAL GUESS: HCORE
--------------------
                      -----------------
                      INTIAL GUESS DONE 
                      -----------------
-------------------
DFT GRID GENERATION
-------------------

General Integration Accuracy     IntAcc      ... 4.388
Radial Grid Type                 RadialGrid  ... OptM3 with GC (2021)
Angular Grid (max. ang.)         AngularGrid ... 4 (Lebedev-302)
Angular grid pruning method      GridPruning ... 4 (adaptive)
Weight generation scheme         WeightScheme... Becke
Basis function cutoff            BFCut       ... 1.0000e-10
Integration weight cutoff        WCut        ... 1.0000e-14
Angular grids for H and He will be reduced by one unit
Partially contracted basis set               ... off
Rotationally invariant grid construction     ... off

Total number of grid points                  ...    17970
Total number of batches                      ...      283
Average number of points per batch           ...       63
Average number of grid points per atom       ...     5990
Time for grid setup =    0.107 sec

--------------
SCF ITERATIONS
--------------
ITER       Energy         Delta-E        Max-DP      RMS-DP      [F,P]     Damp
               ***  Starting incremental Fock matrix formation  ***
  0  -2157.4373217410   0.00000000000011.45603462  0.21468906 13.3181680 0.7000
  1  -2254.5558622397 -97.118540498712 2.89232181  0.07197921  7.6577566 0.7000
                               ***Turning on DIIS***
  2  -2301.3562648960 -46.800402656288 2.50880276  0.05317515  4.9683934 0.7000
  3  -2331.9822534475 -30.625988551480 1.72522764  0.03676944  3.2579104 0.7000
  4  -2352.8663435433 -20.884090095815 1.09836056  0.02518904  2.2600497 0.7000
  5  -2367.4846280899 -14.618284546619 0.76641782  0.01761073  1.5768571 0.7000
  6  -2377.7002241744 -10.215596084526 0.55370999  0.01240337  1.1041357 0.7000
  7  -2384.8445111522  -7.144286977743 0.39940296  0.00875168  0.7740186 0.7000
  8  -2389.8432036391  -4.998692486864 0.28237480  0.00614032  0.5408272 0.7000
  9  -2393.3369177851  -3.493714146008 0.19383331  0.00427807  0.3784458 0.7000
 10  -2395.7805117887  -2.443594003675 0.13364800  0.00298424  0.2646289 0.7000
 11  -2397.4900855102  -1.709573721445 0.09375631  0.00208986  0.1849295 0.7000
 12  -2398.6863693043  -1.196283794095 0.06629882  0.00146643  0.1292215 0.7000
 13  -2399.5235831896  -0.837213885373 0.15585043  0.00342817  0.0903010 0.0000
 14  -2401.4764459852  -1.952862795575 0.00173254  0.00003931  0.0005108 0.0000
 15  -2401.4764461635  -0.000000178313 0.00086814  0.00001949  0.0005070 0.0000
 16  -2401.4764469401  -0.000000776532 0.00003017  0.00000084  0.0001207 0.0000
                 **** Energy Check signals convergence ****

               *****************************************************
               *                     SUCCESS                       *
               *           SCF CONVERGED AFTER  17 CYCLES          *
               *****************************************************


----------------
TOTAL SCF ENERGY
----------------

Total Energy       :        -2401.47644695 Eh          -65347.49632 eV

Components:
Nuclear Repulsion  :           24.52481856 Eh             667.35424 eV
Electronic Energy  :        -2426.00126550 Eh          -66014.85056 eV
One Electron Energy:        -3393.67165575 Eh          -92346.50056 eV
Two Electron Energy:          967.67039025 Eh           26331.64999 eV

Virial components:
Potential Energy   :        -4812.65382525 Eh         -130958.96841 eV
Kinetic Energy     :         2411.17737830 Eh           65611.47209 eV
Virial Ratio       :            1.99597668


DFT components:
N(Alpha)           :       17.999999684928 electrons
N(Beta)            :       17.999999684928 electrons
N(Total)           :       35.999999369855 electrons
E(X)               :      -64.420854667207 Eh       
E(C)               :       -1.705779807055 Eh       
E(XC)              :      -66.126634474262 Eh       
DFET-embed. en.    :        0.000000000000 Eh       

---------------
SCF CONVERGENCE
---------------

  Last Energy change         ...   -5.0559e-09  Tolerance :   1.0000e-06
  Last MAX-Density change    ...    9.1912e-06  Tolerance :   1.0000e-05
  Last RMS-Density change    ...    3.3780e-07  Tolerance :   1.0000e-06
  Last DIIS Error            ...    2.7357e-05  Tolerance :   1.0000e-06

             **** THE GBW FILE WAS UPDATED (orca.gbw) ****
             **** DENSITY orca.scfp WAS UPDATED ****
             **** ENERGY FILE WAS UPDATED (orca.en.tmp) ****
             **** THE GBW FILE WAS UPDATED (orca.gbw) ****
             **** DENSITY orca.scfp WAS UPDATED ****
----------------
ORBITAL ENERGIES
----------------

  NO   OCC          E(Eh)            E(eV) 
   0   2.0000    -453.705481    -12345.9538 
   1   2.0000     -58.109147     -1581.2303 
   2   2.0000     -52.150535     -1419.0882 
   3   2.0000     -52.149611     -1419.0630 
   4   2.0000     -52.147388     -1419.0026 
   5   2.0000      -7.883384      -214.5178 
   6   2.0000      -5.807638      -158.0339 
   7   2.0000      -5.804387      -157.9454 
   8   2.0000      -5.796604      -157.7336 
   9   2.0000      -2.152440       -58.5709 
  10   2.0000      -2.151495       -58.5451 
  11   2.0000      -2.144717       -58.3607 
  12   2.0000      -2.142056       -58.2883 
  13   2.0000      -2.140951       -58.2582 
  14   2.0000      -0.730407       -19.8754 
  15   2.0000      -0.428591       -11.6626 
  16   2.0000      -0.368840       -10.0366 
  17   2.0000      -0.260258        -7.0820 
  18   0.0000       0.001406         0.0383 
  19   0.0000       0.018129         0.4933 
  20   0.0000       0.197380         5.3710 
  21   0.0000       0.220518         6.0006 
  22   0.0000       0.252600         6.8736 
  23   0.0000       0.287333         7.8187 
  24   0.0000       0.344290         9.3686 
  25   0.0000       0.367444         9.9986 
  26   0.0000       0.452279        12.3071 
  27   0.0000       0.475266        12.9326 
  28   0.0000       0.510957        13.9038 
  29   0.0000       0.645103        17.5541 
  30   0.0000       0.768716        20.9178 
  31   0.0000       0.815041        22.1784 
  32   0.0000       1.488573        40.5061 
  33   0.0000       1.493309        40.6350 
  34   0.0000       1.576261        42.8922 
  35   0.0000       1.600214        43.5440 
  36   0.0000       1.616493        43.9870 
  37   0.0000       1.663084        45.2548 
  38   0.0000       1.918812        52.2135 
  39   0.0000       1.946448        52.9655 
  40   0.0000       2.160013        58.7769 
  41   0.0000       2.184218        59.4356 
  42   0.0000       2.196220        59.7622 
  43   0.0000       2.198658        59.8285 
  44   0.0000       2.281139        62.0729 
  45   0.0000       2.349633        63.9368 
  46   0.0000       2.527611        68.7798 
  47   0.0000       2.643618        71.9365 
  48   0.0000       3.169332        86.2419 
  49   0.0000       3.176054        86.4248 
  50   0.0000       3.190037        86.8053 
  51   0.0000       3.198575        87.0376 
  52   0.0000       3.284021        89.3627 
  53   0.0000       3.383384        92.0666 
  54   0.0000       3.426276        93.2337 
  55   0.0000       3.441360        93.6442 
  56   0.0000       4.025027       109.5265 
  57   0.0000       4.214680       114.6873 
  58   0.0000       6.063534       164.9971 
  59   0.0000       6.081859       165.4958 
  60   0.0000       6.082181       165.5045 
  61   0.0000       6.093012       165.7993 
  62   0.0000       6.095835       165.8761 
  63   0.0000       6.134508       166.9284 
  64   0.0000       6.251155       170.1026 
  65   0.0000       6.693001       182.1258 
  66   0.0000       8.835888       240.4367 
  67   0.0000       8.857843       241.0342 
  68   0.0000       8.935116       243.1369 
  69   0.0000       9.170859       249.5518 
  70   0.0000       9.540064       259.5983 
  71   0.0000      16.753558       455.8875 
  72   0.0000      16.995098       462.4601 
  73   0.0000      17.011568       462.9083 
  74   0.0000      25.224373       686.3901 
  75   0.0000      25.229073       686.5180 
  76   0.0000      25.230589       686.5592 
  77   0.0000      25.234017       686.6525 
  78   0.0000      25.234932       686.6774 
  79   0.0000      25.285855       688.0631 
  80   0.0000      25.288156       688.1257 
  81   0.0000      27.196961       740.0669 
  82   0.0000      27.198224       740.1013 
  83   0.0000      27.200995       740.1767 
  84   0.0000      27.201206       740.1824 
  85   0.0000      27.204032       740.2593 
  86   0.0000      27.205754       740.3062 
  87   0.0000      27.205820       740.3080 
  88   0.0000      27.207930       740.3654 
  89   0.0000      27.208417       740.3787 
  90   0.0000      83.418923      2269.9443 
  91   0.0000     501.609860     13649.4982 
  92   0.0000    2777.950748     75591.8829 

                    ********************************
                    * MULLIKEN POPULATION ANALYSIS *
                    ********************************

-----------------------
MULLIKEN ATOMIC CHARGES
-----------------------
   0 H :   -0.094423
   1 H :   -0.094423
   2 Se:    0.188845
Sum of atomic charges:    0.0000000

--------------------------------
MULLIKEN REDUCED ORBITAL CHARGES
--------------------------------
  0 H s       :     1.017576  s :     1.017576
      pz      :     0.025858  p :     0.073622
      px      :     0.022750
      py      :     0.025014
      dz2     :     0.000575  d :     0.003225
      dxz     :     0.001043
      dyz     :     0.000529
      dx2y2   :     0.000494
      dxy     :     0.000584
  1 H s       :     1.017576  s :     1.017576
      pz      :     0.025858  p :     0.073622
      px      :     0.022750
      py      :     0.025014
      dz2     :     0.000575  d :     0.003225
      dxz     :     0.001043
      dyz     :     0.000529
      dx2y2   :     0.000494
      dxy     :     0.000584
  2 Ses       :     7.830520  s :     7.830520
      pz      :     5.157693  p :    15.978003
      px      :     4.871220
      py      :     5.949090
      dz2     :     1.999343  d :    10.002506
      dxz     :     2.005111
      dyz     :     1.999407
      dx2y2   :     1.999407
      dxy     :     1.999238
      f0      :     0.000005  f :     0.000126
      f+1     :     0.000048
      f-1     :     0.000005
      f+2     :     0.000048
      f-2     :     0.000002
      f+3     :     0.000015
      f-3     :     0.000003
      g0      :     0.000000  g :     0.000000
      g+1     :     0.000000
      g-1     :     0.000000
      g+2     :     0.000000
      g-2     :     0.000000
      g+3     :     0.000000
      g-3     :     0.000000
      g+4     :     0.000000
      g-4     :     0.000000


                     *******************************
                     * LOEWDIN POPULATION ANALYSIS *
                     *******************************

----------------------
LOEWDIN ATOMIC CHARGES
----------------------
   0 H :   -0.257790
   1 H :   -0.257790
   2 Se:    0.515579

-------------------------------
LOEWDIN REDUCED ORBITAL CHARGES
-------------------------------
  0 H s       :     1.033487  s :     1.033487
      pz      :     0.083470  p :     0.207002
      px      :     0.061456
      py      :     0.062076
      dz2     :     0.002797  d :     0.017301
      dxz     :     0.006874
      dyz     :     0.002668
      dx2y2   :     0.002252
      dxy     :     0.002710
  1 H s       :     1.033487  s :     1.033487
      pz      :     0.083470  p :     0.207002
      px      :     0.061456
      py      :     0.062076
      dz2     :     0.002797  d :     0.017301
      dxz     :     0.006874
      dyz     :     0.002668
      dx2y2   :     0.002252
      dxy     :     0.002710
  2 Ses       :     7.423758  s :     7.423758
      pz      :     5.277229  p :    16.064506
      px      :     4.919000
      py      :     5.868277
      dz2     :     1.998153  d :     9.996001
      dxz     :     2.001456
      dyz     :     1.998428
      dx2y2   :     1.999583
      dxy     :     1.998381
      f0      :     0.000008  f :     0.000155
      f+1     :     0.000054
      f-1     :     0.000004
      f+2     :     0.000073
      f-2     :     0.000002
      f+3     :     0.000013
      f-3     :     0.000001
      g0      :     0.000000  g :     0.000000
      g+1     :     0.000000
      g-1     :     0.000000
      g+2     :     0.000000
      g-2     :     0.000000
      g+3     :     0.000000
      g-3     :     0.000000
      g+4     :     0.000000
      g-4     :     0.000000


                      *****************************
                      * MAYER POPULATION ANALYSIS *
                      *****************************

  NA   - Mulliken gross atomic population
  ZA   - Total nuclear charge
  QA   - Mulliken gross atomic charge
  VA   - Mayer's total valence
  BVA  - Mayer's bonded valence
  FA   - Mayer's free valence

  ATOM       NA         ZA         QA         VA         BVA        FA
  0 H      1.0944     1.0000    -0.0944     1.0501     1.0501     0.0000
  1 H      1.0944     1.0000    -0.0944     1.0501     1.0501     0.0000
  2 Se    33.8112    34.0000     0.1888     2.0686     2.0686     0.0000

  Mayer bond orders larger than 0.100000
B(  0-H ,  2-Se) :   1.0343 B(  1-H ,  2-Se) :   1.0343 

-------
TIMINGS
-------

Total SCF time: 0 days 0 hours 0 min 10 sec 

Total time                  ....      10.137 sec
Sum of individual times     ....       9.994 sec  ( 98.6%)

Fock matrix formation       ....       9.855 sec  ( 97.2%)
  XC integration            ....       1.691 sec  ( 17.2% of F)
    Basis function eval.    ....       0.547 sec  ( 32.4% of XC)
    Density eval.           ....       0.246 sec  ( 14.6% of XC)
    XC-Functional eval.     ....       0.237 sec  ( 14.0% of XC)
    XC-Potential eval.      ....       0.407 sec  ( 24.1% of XC)
Diagonalization             ....       0.018 sec  (  0.2%)
Density matrix formation    ....       0.001 sec  (  0.0%)
Population analysis         ....       0.004 sec  (  0.0%)
Initial guess               ....       0.001 sec  (  0.0%)
Orbital Transformation      ....       0.000 sec  (  0.0%)
Orbital Orthonormalization  ....       0.000 sec  (  0.0%)
DIIS solution               ....       0.007 sec  (  0.1%)
Grid generation             ....       0.107 sec  (  1.1%)

Maximum memory used throughout the entire SCF-calculation: 245.4 MB
------------------------------------------------------------------------------
                        ORCA TD-DFT/TDA CALCULATION
------------------------------------------------------------------------------

Input orbitals are from        ... orca.gbw
CI-vector output               ... orca.cis
Tamm-Dancoff approximation     ... operative
CIS-Integral strategy          ... AO-integrals
Integral handling              ... AO integral Direct
Max. core memory used          ... 512 MB
Reference state                ... RHF
Generation of triplets         ... on
Follow IRoot                   ... off
Number of operators            ... 1
Orbital ranges used for CIS calculation:
 Operator 0:  Orbitals   9... 17  to  18... 92
XAS localization array:
 Operator 0:  Orbitals  -1... -1

-------------------
XC-INTEGRATION GRID
-------------------

General Integration Accuracy     IntAcc      ... 3.467
Radial Grid Type                 RadialGrid  ... OptM3 with GC (2021)
Angular Grid (max. ang.)         AngularGrid ... 1 (Lebedev-50)
Angular grid pruning method      GridPruning ... 4 (adaptive)
Weight generation scheme         WeightScheme... Becke
Basis function cutoff            BFCut       ... 1.0000e-10
Integration weight cutoff        WCut        ... 1.0000e-14
Angular grids for H and He will be reduced by one unit
Partially contracted basis set               ... off
Rotationally invariant grid construction     ... off

Total number of grid points                  ...     5202
Total number of batches                      ...       83
Average number of points per batch           ...       62
Average number of grid points per atom       ...     1734

---------------
TD-DFT XC SETUP
---------------

DFT calculation                         ... on
Name of the grid file                   ... orca.grid_cis.tmp
Exchange functional (TD-DFT)            ... PBE
   PBE kappa parameter  XKappa (TD-DFT) ...  0.804000
   PBE mue parameter   XMuePBE (TD-DFT) ...  0.219520
Correlation functional (TD-DFT)         ... PBE
   PBE beta parameter CBetaPBE (TD-DFT) ...  0.066725
 LDA part of GGA corr.  LDAOpt (TD-DFT) ... PW91-LDA
Hybrid DFT                              ... on
   Exchange mixing (TD-DFT)             ...  0.250
   GGA exch. scaling (TD-DFT)           ...  0.750
   GGA corr. scaling (TD-DFT)           ...  1.000

Building densities             ... done
Calculating rho(r) on the grid ... done
Building xc-kernel on the grid ... done
                    *** TD-DFT CALCULATION INITIALIZED ***

------------------------
DAVIDSON-DIAGONALIZATION
------------------------

Dimension of the eigenvalue problem            ...    675
Number of roots to be determined               ...     10
Maximum size of the expansion space            ...    100
Maximum number of iterations                   ...    100
Convergence tolerance for the residual         ...    1.000e-06
Convergence tolerance for the energies         ...    1.000e-06
Orthogonality tolerance                        ...    1.000e-14
Level Shift                                    ...    0.000e+00
Constructing the preconditioner                ... o.k.
Building the initial guess                     ... o.k.
Number of trial vectors determined             ...    100


                       ****Iteration    0****

   Memory handling for direct AO based CIS:
   Memory per vector needed      ...     1 MB
   Memory needed                 ...     5 MB
   Memory available              ...   512 MB
   Number of vectors per batch   ...   512
   Number of batches             ...     1
   Time for densities:            0.001
   SHARK[1a]
   Time for J+K (Direct):         2.145
   Time for XC-Integration:       0.424
   Time for Sigma-Completion:     0.002
   Size of expansion space: 30
   Lowest Energy          :     0.197104364251
   Maximum Energy change  :     0.491498952475 (vector 9)
   Maximum residual norm  :     0.011749178463

                       ****Iteration    1****
   Time for densities:            0.001
   SHARK[1a]
   Time for J+K (Direct):         1.064
   Time for XC-Integration:       0.153
   Time for Sigma-Completion:     0.001
   Size of expansion space: 40
   Lowest Energy          :     0.196742756438
   Maximum Energy change  :     0.003083924097 (vector 3)
   Maximum residual norm  :     0.000227062205

                       ****Iteration    2****
   Time for densities:            0.001
   SHARK[1a]
   Time for J+K (Direct):         1.062
   Time for XC-Integration:       0.153
   Time for Sigma-Completion:     0.001
   Size of expansion space: 50
   Lowest Energy          :     0.196742344030
   Maximum Energy change  :     0.000040105624 (vector 8)
   Maximum residual norm  :     0.000001233013

                       ****Iteration    3****
   Time for densities:            0.000
   SHARK[1a]
   Time for J+K (Direct):         1.062
   Time for XC-Integration:       0.153
   Time for Sigma-Completion:     0.001
   Size of expansion space: 60
   Lowest Energy          :     0.196742343641
   Maximum Energy change  :     0.000000194963 (vector 8)

         *** CONVERGENCE OF ENERGIES REACHED ***

Storing the converged CI vectors               ... orca.cis1

                 *** DAVIDSON DONE ***

Total time for solving the CIS problem:     6.370sec

------------------------------------
TD-DFT/TDA EXCITED STATES (SINGLETS)
------------------------------------

the weight of the individual excitations are printed if larger than 1.0e-02

STATE  1:  E=   0.196742 au      5.354 eV    43180.0 cm**-1 <S**2> =   0.000000
    17a ->  18a  :     0.999043 (c=  0.99952125)

STATE  2:  E=   0.225043 au      6.124 eV    49391.3 cm**-1 <S**2> =   0.000000
    17a ->  19a  :     0.996247 (c=  0.99812176)

STATE  3:  E=   0.338348 au      9.207 eV    74258.8 cm**-1 <S**2> =   0.000000
    15a ->  18a  :     0.113055 (c=  0.33623593)
    16a ->  19a  :     0.884170 (c=  0.94030293)

STATE  4:  E=   0.342492 au      9.320 eV    75168.2 cm**-1 <S**2> =   0.000000
    15a ->  19a  :     0.143762 (c=  0.37915977)
    16a ->  18a  :     0.834263 (c=  0.91337983)

STATE  5:  E=   0.395032 au     10.749 eV    86699.4 cm**-1 <S**2> =   0.000000
    17a ->  20a  :     0.998869 (c=  0.99943449)

STATE  6:  E=   0.414510 au     11.279 eV    90974.5 cm**-1 <S**2> =   0.000000
    15a ->  19a  :     0.833056 (c= -0.91271923)
    15a ->  23a  :     0.012734 (c= -0.11284522)
    16a ->  18a  :     0.122079 (c=  0.34939783)

STATE  7:  E=   0.417456 au     11.360 eV    91621.0 cm**-1 <S**2> =   0.000000
    15a ->  18a  :     0.758301 (c=  0.87080474)
    16a ->  19a  :     0.086222 (c= -0.29363627)
    16a ->  24a  :     0.025007 (c= -0.15813510)
    17a ->  22a  :     0.103037 (c=  0.32099310)
    17a ->  27a  :     0.011892 (c=  0.10905059)

STATE  8:  E=   0.421788 au     11.477 eV    92571.7 cm**-1 <S**2> =   0.000000
    17a ->  21a  :     0.976938 (c=  0.98840191)
    17a ->  23a  :     0.016567 (c= -0.12871204)

STATE  9:  E=   0.474276 au     12.906 eV   104091.5 cm**-1 <S**2> =   0.000000
    15a ->  18a  :     0.062004 (c= -0.24900515)
    15a ->  20a  :     0.021456 (c= -0.14647992)
    16a ->  19a  :     0.011227 (c=  0.10595855)
    16a ->  21a  :     0.105086 (c= -0.32416908)
    16a ->  23a  :     0.015466 (c=  0.12436216)
    17a ->  22a  :     0.756778 (c=  0.86992972)

STATE 10:  E=   0.488761 au     13.300 eV   107270.6 cm**-1 <S**2> =   0.000000
    17a ->  21a  :     0.011779 (c= -0.10853069)
    17a ->  23a  :     0.930994 (c= -0.96488046)
    17a ->  24a  :     0.047835 (c=  0.21871222)


                  ********************************
                  * Entering triplet calculation *
                  ********************************

------------------------
DAVIDSON-DIAGONALIZATION
------------------------

Dimension of the eigenvalue problem            ...    675
Number of roots to be determined               ...     10
Maximum size of the expansion space            ...    100
Maximum number of iterations                   ...    100
Convergence tolerance for the residual         ...    1.000e-06
Convergence tolerance for the energies         ...    1.000e-06
Orthogonality tolerance                        ...    1.000e-14
Level Shift                                    ...    0.000e+00
Constructing the preconditioner                ... o.k.
Building the initial guess                     ... o.k.
Number of trial vectors determined             ...    100


                       ****Iteration    0****
                <<< Triplet sigma vectors requested >>>

   Memory handling for direct AO based CIS:
   Memory per vector needed      ...     1 MB
   Memory needed                 ...     3 MB
   Memory available              ...   512 MB
   Number of vectors per batch   ...   512
   Number of batches             ...     1
   Time for densities:            0.001
   SHARK[2G] - ScalHFX=    0.250 ScalHFX_loc=    1.000 facx=    1.000
   Time for K (Direct):           1.700
   Time for XC-Integration:       0.422
   Time for Sigma-Completion:     0.002
   Size of expansion space: 30
   Lowest Energy          :     0.176237775387
   Maximum Energy change  :     0.461914590675 (vector 9)
   Maximum residual norm  :     0.002019969151

                       ****Iteration    1****
   Time for densities:            0.000
   SHARK[2G] - ScalHFX=    0.250 ScalHFX_loc=    1.000 facx=    1.000
   Time for K (Direct):           0.917
   Time for XC-Integration:       0.153
   Time for Sigma-Completion:     0.001
   Size of expansion space: 40
   Lowest Energy          :     0.175644665906
   Maximum Energy change  :     0.002417733007 (vector 5)
   Maximum residual norm  :     0.000009452241

                       ****Iteration    2****
   Time for densities:            0.000
   SHARK[2G] - ScalHFX=    0.250 ScalHFX_loc=    1.000 facx=    1.000
   Time for K (Direct):           0.924
   Time for XC-Integration:       0.153
   Time for Sigma-Completion:     0.001
   Size of expansion space: 50
   Lowest Energy          :     0.175643511221
   Maximum Energy change  :     0.000004825164 (vector 3)
   Maximum residual norm  :     0.000000082451

      *** CONVERGENCE OF RESIDUAL NORM REACHED ***

Storing the converged CI vectors               ... orca.cis3

                 *** DAVIDSON DONE ***

------------------------------------
TD-DFT/TDA EXCITED STATES (TRIPLETS)
------------------------------------

the weight of the individual excitations are printed if larger than 1.0e-02

STATE  1:  E=   0.175644 au      4.780 eV    38549.3 cm**-1 <S**2> =   2.000000
    17a ->  18a  :     0.996144 (c= -0.99807015)

STATE  2:  E=   0.200001 au      5.442 eV    43895.2 cm**-1 <S**2> =   2.000000
    17a ->  19a  :     0.993430 (c= -0.99670981)

STATE  3:  E=   0.263452 au      7.169 eV    57821.1 cm**-1 <S**2> =   2.000000
    15a ->  19a  :     0.035211 (c= -0.18764476)
    16a ->  18a  :     0.954554 (c=  0.97701256)

STATE  4:  E=   0.290178 au      7.896 eV    63686.6 cm**-1 <S**2> =   2.000000
    15a ->  18a  :     0.249992 (c=  0.49999213)
    16a ->  19a  :     0.731275 (c= -0.85514612)

STATE  5:  E=   0.331526 au      9.021 eV    72761.6 cm**-1 <S**2> =   2.000000
    15a ->  18a  :     0.731681 (c= -0.85538365)
    16a ->  19a  :     0.258694 (c= -0.50861952)

STATE  6:  E=   0.355352 au      9.670 eV    77990.7 cm**-1 <S**2> =   2.000000
    15a ->  19a  :     0.944377 (c=  0.97179045)
    15a ->  23a  :     0.010373 (c= -0.10184634)
    16a ->  18a  :     0.037246 (c=  0.19299208)

STATE  7:  E=   0.390244 au     10.619 eV    85648.7 cm**-1 <S**2> =   2.000000
    17a ->  20a  :     0.996750 (c= -0.99837375)

STATE  8:  E=   0.408298 au     11.110 eV    89610.9 cm**-1 <S**2> =   2.000000
    17a ->  21a  :     0.993652 (c= -0.99682078)

STATE  9:  E=   0.420932 au     11.454 eV    92383.9 cm**-1 <S**2> =   2.000000
    17a ->  22a  :     0.985104 (c=  0.99252398)

STATE 10:  E=   0.461358 au     12.554 eV   101256.3 cm**-1 <S**2> =   2.000000
    17a ->  23a  :     0.963001 (c= -0.98132634)
    17a ->  24a  :     0.019650 (c= -0.14017895)

------------------------------
TD-DFT/TDA SPIN-ORBIT COUPLING
------------------------------

Calculating the spin-orbit integrals:             

Loading the effective charges         ... done
Entering the SOC calc. section        ... 
------------------------------------------------------------------------------
                         ORCA SPIN-ORBIT COUPLING CALCULATION
------------------------------------------------------------------------------

GBW file                                    ... orca.gbw
Input density                               ... orca.cisp0
Output integrals                            ... orca.cis
Operator type                               ... Mean-field/Effective potential
   One-Electron Terms                       ... 1
   Coulomb Contribution                     ... 4
   Exchange Contribution                    ... 3
   Correlation Contribution                 ... 0
   Maximum number of centers                ... 4
SHARK 1-electron  MaxCenter=4               ... done (  0.0 sec)
Evaluating Coulomb term analytically        ... 
SHARK 2-electron DoJ,X=1,1 MaxCenter=4      ... done (  7.4 sec)
Transforming the SOC integrals              ... done
Constructing the SOC matrix:                ... done
Diagonalizing the SOC matrix:               ... done

      --------------------------------------------------------------------------------
                      CALCULATED SOCME BETWEEN TRIPLETS AND SINGLETS                  
      --------------------------------------------------------------------------------
           Root                          <T|HSO|S>  (Re, Im) cm-1                     
         T      S             Z                     X                     Y           
      --------------------------------------------------------------------------------
         1      0    (   0.00 , -897.04 )    (   0.00 ,   -0.00 )    (  -0.00 ,    0.00 )
         1      1    (   0.00 ,   -0.00 )    (   0.00 ,   -0.00 )    (  -0.00 ,    0.00 )
         1      2    (   0.00 ,    0.00 )    (   0.00 ,   -0.00 )    (  -0.00 ,  318.25 )
         1      3    (   0.00 , -234.12 )    (   0.00 ,    0.00 )    (  -0.00 ,    0.00 )
         1      4    (   0.00 ,   -0.00 )    (   0.00 , -727.52 )    (  -0.00 ,   -0.00 )
         1      5    (   0.00 ,    0.00 )    (   0.00 ,   -0.00 )    (  -0.00 ,   -0.00 )
         1      6    (   0.00 ,   -0.00 )    (   0.00 , -277.54 )    (  -0.00 ,   -0.00 )
         1      7    (   0.00 , -818.47 )    (   0.00 ,    0.00 )    (  -0.00 ,    0.00 )
         1      8    (   0.00 ,    0.00 )    (   0.00 ,   -0.00 )    (  -0.00 ,  351.71 )
         1      9    (   0.00 , -221.00 )    (   0.00 ,   -0.00 )    (  -0.00 ,    0.00 )
         1     10    (   0.00 ,    0.00 )    (   0.00 ,   -0.00 )    (  -0.00 ,  253.47 )
         2      0    (   0.00 ,   -0.00 )    (   0.00 ,  707.52 )    (  -0.00 ,    0.00 )
         2      1    (   0.00 ,   -0.00 )    (   0.00 ,    0.00 )    (  -0.00 , -324.55 )
         2      2    (   0.00 ,   -0.00 )    (   0.00 ,   -0.00 )    (  -0.00 ,    0.00 )
         2      3    (   0.00 ,    0.00 )    (   0.00 , -749.13 )    (  -0.00 ,   -0.00 )
         2      4    (   0.00 , -283.73 )    (   0.00 ,   -0.00 )    (  -0.00 ,    0.00 )
         2      5    (   0.00 ,    0.00 )    (   0.00 ,   -0.00 )    (  -0.00 ,  262.52 )
         2      6    (   0.00 ,  668.14 )    (   0.00 ,    0.00 )    (  -0.00 ,   -0.00 )
         2      7    (   0.00 ,   -0.00 )    (   0.00 ,  355.26 )    (  -0.00 ,    0.00 )
         2      8    (   0.00 ,    0.00 )    (   0.00 ,    0.00 )    (  -0.00 ,    0.00 )
         2      9    (   0.00 ,   -0.00 )    (   0.00 ,  246.70 )    (  -0.00 ,    0.00 )
         2     10    (   0.00 ,   -0.00 )    (   0.00 ,    0.00 )    (  -0.00 ,    0.00 )
         3      0    (   0.00 ,   -0.00 )    (   0.00 ,    0.00 )    (  -0.00 , -604.18 )
         3      1    (   0.00 ,    0.00 )    (   0.00 , -771.65 )    (  -0.00 ,   -0.00 )
         3      2    (   0.00 ,  144.72 )    (   0.00 ,    0.00 )    (  -0.00 ,   -0.00 )
         3      3    (   0.00 ,   -0.00 )    (   0.00 ,    0.00 )    (  -0.00 , -616.58 )
         3      4    (   0.00 ,   -0.00 )    (   0.00 ,    0.00 )    (  -0.00 ,   -0.00 )
         3      5    (   0.00 ,    0.00 )    (   0.00 ,    6.60 )    (  -0.00 ,    0.00 )
         3      6    (   0.00 ,    0.00 )    (   0.00 ,   -0.00 )    (  -0.00 ,   -0.00 )
         3      7    (   0.00 ,   -0.00 )    (   0.00 ,    0.00 )    (  -0.00 , -536.56 )
         3      8    (   0.00 ,   -9.82 )    (   0.00 ,   -0.00 )    (  -0.00 ,   -0.00 )
         3      9    (   0.00 ,    0.00 )    (   0.00 ,   -0.00 )    (  -0.00 ,  290.29 )
         3     10    (   0.00 ,   58.78 )    (   0.00 ,    0.00 )    (  -0.00 ,   -0.00 )
         4      0    (   0.00 ,   -0.00 )    (   0.00 ,    0.00 )    (  -0.00 ,    0.00 )
         4      1    (   0.00 , -369.08 )    (   0.00 ,   -0.00 )    (  -0.00 ,    0.00 )
         4      2    (   0.00 ,   -0.00 )    (   0.00 ,  686.99 )    (  -0.00 ,    0.00 )
         4      3    (   0.00 ,   -0.00 )    (   0.00 ,    0.00 )    (  -0.00 ,   -0.00 )
         4      4    (   0.00 ,    0.00 )    (   0.00 ,   -0.00 )    (  -0.00 ,  151.45 )
         4      5    (   0.00 ,   19.77 )    (   0.00 ,    0.00 )    (  -0.00 ,   -0.00 )
         4      6    (   0.00 ,   -0.00 )    (   0.00 ,    0.00 )    (  -0.00 , -320.95 )
         4      7    (   0.00 ,   -0.00 )    (   0.00 ,   -0.00 )    (  -0.00 ,    0.00 )
         4      8    (   0.00 ,    0.00 )    (   0.00 ,  -18.91 )    (  -0.00 ,   -0.00 )
         4      9    (   0.00 ,    0.00 )    (   0.00 ,   -0.00 )    (  -0.00 ,   -0.00 )
         4     10    (   0.00 ,   -0.00 )    (   0.00 ,   81.59 )    (  -0.00 ,    0.00 )
         5      0    (   0.00 ,    0.00 )    (   0.00 ,    0.00 )    (  -0.00 ,   -0.00 )
         5      1    (   0.00 ,  608.80 )    (   0.00 ,    0.00 )    (  -0.00 ,   -0.00 )
         5      2    (   0.00 ,   -0.00 )    (   0.00 ,  416.58 )    (  -0.00 ,    0.00 )
         5      3    (   0.00 ,    0.00 )    (   0.00 ,    0.00 )    (  -0.00 ,    0.00 )
         5      4    (   0.00 ,   -0.00 )    (   0.00 ,    0.00 )    (  -0.00 , -371.58 )
         5      5    (   0.00 ,   15.04 )    (   0.00 ,   -0.00 )    (  -0.00 ,   -0.00 )
         5      6    (   0.00 ,   -0.00 )    (   0.00 ,    0.00 )    (  -0.00 , -751.20 )
         5      7    (   0.00 ,    0.00 )    (   0.00 ,   -0.00 )    (  -0.00 ,    0.00 )
         5      8    (   0.00 ,    0.00 )    (   0.00 ,    7.17 )    (  -0.00 ,    0.00 )
         5      9    (   0.00 ,   -0.00 )    (   0.00 ,    0.00 )    (  -0.00 ,    0.00 )
         5     10    (   0.00 ,   -0.00 )    (   0.00 ,   10.81 )    (  -0.00 ,    0.00 )
         6      0    (   0.00 ,   -0.00 )    (   0.00 ,    0.00 )    (  -0.00 , -660.60 )
         6      1    (   0.00 ,    0.00 )    (   0.00 , -146.44 )    (  -0.00 ,   -0.00 )
         6      2    (   0.00 , -717.44 )    (   0.00 ,   -0.00 )    (  -0.00 ,    0.00 )
         6      3    (   0.00 ,    0.00 )    (   0.00 ,   -0.00 )    (  -0.00 ,  592.75 )
         6      4    (   0.00 ,    0.00 )    (   0.00 ,    0.00 )    (  -0.00 ,    0.00 )
         6      5    (   0.00 ,    0.00 )    (   0.00 ,  -36.39 )    (  -0.00 ,   -0.00 )
         6      6    (   0.00 ,   -0.00 )    (   0.00 ,    0.00 )    (  -0.00 ,    0.00 )
         6      7    (   0.00 ,    0.00 )    (   0.00 ,   -0.00 )    (  -0.00 ,   11.28 )
         6      8    (   0.00 ,    2.90 )    (   0.00 ,   -0.00 )    (  -0.00 ,   -0.00 )
         6      9    (   0.00 ,    0.00 )    (   0.00 ,   -0.00 )    (  -0.00 ,   78.14 )
         6     10    (   0.00 ,  -68.32 )    (   0.00 ,   -0.00 )    (  -0.00 ,    0.00 )
         7      0    (   0.00 ,  701.67 )    (   0.00 ,    0.00 )    (  -0.00 ,   -0.00 )
         7      1    (   0.00 ,   -0.00 )    (   0.00 ,    0.00 )    (  -0.00 ,    0.00 )
         7      2    (   0.00 ,   -0.00 )    (   0.00 ,    0.00 )    (  -0.00 , -256.69 )
         7      3    (   0.00 ,  -12.17 )    (   0.00 ,   -0.00 )    (  -0.00 ,    0.00 )
         7      4    (   0.00 ,   -0.00 )    (   0.00 ,    8.60 )    (  -0.00 ,    0.00 )
         7      5    (   0.00 ,    0.00 )    (   0.00 ,   -0.00 )    (  -0.00 ,   -0.00 )
         7      6    (   0.00 ,    0.00 )    (   0.00 ,   71.86 )    (  -0.00 ,    0.00 )
         7      7    (   0.00 ,  186.25 )    (   0.00 ,   -0.00 )    (  -0.00 ,   -0.00 )
         7      8    (   0.00 ,   -0.00 )    (   0.00 ,    0.00 )    (  -0.00 , -282.50 )
         7      9    (   0.00 ,  449.60 )    (   0.00 ,   -0.00 )    (  -0.00 ,   -0.00 )
         7     10    (   0.00 ,   -0.00 )    (   0.00 ,    0.00 )    (  -0.00 , -233.71 )
         8      0    (   0.00 ,    0.00 )    (   0.00 ,  608.33 )    (  -0.00 ,    0.00 )
         8      1    (   0.00 ,   -0.00 )    (   0.00 ,    0.00 )    (  -0.00 , -299.28 )
         8      2    (   0.00 ,    0.00 )    (   0.00 ,    0.00 )    (  -0.00 ,   -0.00 )
         8      3    (   0.00 ,   -0.00 )    (   0.00 ,  -35.66 )    (  -0.00 ,   -0.00 )
         8      4    (   0.00 ,   40.24 )    (   0.00 ,   -0.00 )    (  -0.00 ,   -0.00 )
         8      5    (   0.00 ,    0.00 )    (   0.00 ,   -0.00 )    (  -0.00 ,  242.26 )
         8      6    (   0.00 ,   88.26 )    (   0.00 ,    0.00 )    (  -0.00 ,   -0.00 )
         8      7    (   0.00 ,   -0.00 )    (   0.00 ,  144.43 )    (  -0.00 ,    0.00 )
         8      8    (   0.00 ,   -0.00 )    (   0.00 ,    0.00 )    (  -0.00 ,   -0.00 )
         8      9    (   0.00 ,    0.00 )    (   0.00 ,  579.62 )    (  -0.00 ,    0.00 )
         8     10    (   0.00 ,   -0.00 )    (   0.00 ,    0.00 )    (  -0.00 ,   -0.00 )
         9      0    (   0.00 ,   -0.00 )    (   0.00 ,   -0.00 )    (  -0.00 ,   -0.00 )
         9      1    (   0.00 , -506.74 )    (   0.00 ,   -0.00 )    (  -0.00 ,    0.00 )
         9      2    (   0.00 ,   -0.00 )    (   0.00 ,  347.47 )    (  -0.00 ,    0.00 )
         9      3    (   0.00 ,    0.00 )    (   0.00 ,    0.00 )    (  -0.00 ,   -0.00 )
         9      4    (   0.00 ,    0.00 )    (   0.00 ,   -0.00 )    (  -0.00 ,   55.63 )
         9      5    (   0.00 ,  361.24 )    (   0.00 ,    0.00 )    (  -0.00 ,   -0.00 )
         9      6    (   0.00 ,    0.00 )    (   0.00 ,   -0.00 )    (  -0.00 ,   36.57 )
         9      7    (   0.00 ,    0.00 )    (   0.00 ,   -0.00 )    (  -0.00 ,   -0.00 )
         9      8    (   0.00 ,   -0.00 )    (   0.00 ,  343.23 )    (  -0.00 ,    0.00 )
         9      9    (   0.00 ,   -0.00 )    (   0.00 ,   -0.00 )    (  -0.00 ,    0.00 )
         9     10    (   0.00 ,   -0.00 )    (   0.00 ,  331.81 )    (  -0.00 ,    0.00 )
        10      0    (   0.00 ,    0.00 )    (   0.00 , -709.37 )    (  -0.00 ,   -0.00 )
        10      1    (   0.00 ,    0.00 )    (   0.00 ,   -0.00 )    (  -0.00 ,  343.21 )
        10      2    (   0.00 ,    0.00 )    (   0.00 ,    0.00 )    (  -0.00 ,    0.00 )
        10      3    (   0.00 ,   -0.00 )    (   0.00 ,  -18.11 )    (  -0.00 ,   -0.00 )
        10      4    (   0.00 ,   15.21 )    (   0.00 ,   -0.00 )    (  -0.00 ,   -0.00 )
        10      5    (   0.00 ,   -0.00 )    (   0.00 ,    0.00 )    (  -0.00 , -291.13 )
        10      6    (   0.00 ,  102.71 )    (   0.00 ,   -0.00 )    (  -0.00 ,   -0.00 )
        10      7    (   0.00 ,   -0.00 )    (   0.00 ,  -77.80 )    (  -0.00 ,   -0.00 )
        10      8    (   0.00 ,   -0.00 )    (   0.00 ,    0.00 )    (  -0.00 ,   -0.00 )
        10      9    (   0.00 ,    0.00 )    (   0.00 , -511.79 )    (  -0.00 ,   -0.00 )
        10     10    (   0.00 ,   -0.00 )    (   0.00 ,   -0.00 )    (  -0.00 ,   -0.00 )

SOC stabilization of the ground state: -58.9991 cm-1
Eigenvalues of the SOC matrix:

   State:        cm-1         eV
     0:          0.00         0.0000
     1:      38543.40         4.7788
     2:      38545.40         4.7790
     3:      38560.23         4.7809
     4:      43045.34         5.3369
     5:      43930.74         5.4467
     6:      43944.40         5.4484
     7:      44030.41         5.4591
     8:      49395.98         6.1243
     9:      57867.91         7.1747
    10:      57875.10         7.1756
    11:      57884.12         7.1767
    12:      63764.83         7.9058
    13:      63767.77         7.9062
    14:      63770.78         7.9066
    15:      72747.72         9.0196
    16:      72845.62         9.0317
    17:      72848.26         9.0320
    18:      74264.24         9.2076
    19:      75304.24         9.3365
    20:      78113.00         9.6848
    21:      78115.94         9.6851
    22:      78167.65         9.6916
    23:      85659.07        10.6204
    24:      85668.74        10.6216
    25:      85675.70        10.6224
    26:      86706.94        10.7503
    27:      89639.51        11.1139
    28:      89651.07        11.1153
    29:      89662.06        11.1167
    30:      91083.81        11.2930
    31:      91717.80        11.3716
    32:      92222.94        11.4342
    33:      92503.43        11.4690
    34:      92506.31        11.4693
    35:      92890.96        11.5170
    36:     101242.67        12.5525
    37:     101340.02        12.5646
    38:     101340.65        12.5646
    39:     104273.74        12.9283
    40:     107340.57        13.3085

The threshold for printing is 0.0100
Eigenvectors of the SOC matrix:

             E(cm-1)  Weight      Real         Imag     : Root  Spin  Ms
 STATE  0:      0.00
                      0.99886     -0.00000     -0.99943 : 0     0     0
 STATE  1:  38543.40
                      0.49845      0.42037      0.56722 : 1     1    -1
                      0.49845      0.42037      0.56722 : 1     1     1
 STATE  2:  38545.40
                      0.49740      0.66458      0.23608 : 1     1    -1
                      0.49740     -0.66458     -0.23608 : 1     1     1
 STATE  3:  38560.23
                      0.99405      0.99702     -0.00000 : 1     1     0
 STATE  4:  43045.34
                      0.86909     -0.93225      0.00000 : 1     0     0
                      0.06374     -0.25247      0.00000 : 2     1    -1
                      0.06374     -0.25247     -0.00000 : 2     1     1
 STATE  5:  43930.74
                      0.99424     -0.99351     -0.08479 : 2     1     0
 STATE  6:  43944.40
                      0.49753      0.70536     -0.00000 : 2     1    -1
                      0.49753     -0.70536      0.00000 : 2     1     1
 STATE  7:  44030.41
                      0.12741     -0.35695      0.00000 : 1     0     0
                      0.43527      0.65975     -0.00000 : 2     1    -1
                      0.43527      0.65975     -0.00000 : 2     1     1
 STATE  8:  49395.98
                      0.99560     -0.99662     -0.04839 : 2     0     0
 STATE  9:  57867.91
                      0.99157     -0.10810      0.98989 : 3     1     0
 STATE 10:  57875.10
                      0.49527     -0.00000     -0.70375 : 3     1    -1
                      0.49527     -0.00000      0.70375 : 3     1     1
 STATE 11:  57884.12
                      0.49822      0.00000      0.70584 : 3     1    -1
                      0.49822     -0.00000      0.70584 : 3     1     1
 STATE 12:  63764.83
                      0.98904     -0.00000     -0.99450 : 4     1     0
 STATE 13:  63767.77
                      0.49914     -0.16631      0.68665 : 4     1    -1
                      0.49914     -0.16631      0.68665 : 4     1     1
 STATE 14:  63770.78
                      0.49416     -0.00819      0.70292 : 4     1    -1
                      0.49416      0.00819     -0.70292 : 4     1     1
 STATE 15:  72747.72
                      0.02276      0.14275     -0.04884 : 4     0     0
                      0.48755      0.66064     -0.22605 : 5     1    -1
                      0.48755      0.66064     -0.22605 : 5     1     1
 STATE 16:  72845.62
                      0.99860     -0.00000     -0.99930 : 5     1     0
 STATE 17:  72848.26
                      0.49927      0.00378      0.70658 : 5     1    -1
                      0.49927     -0.00378     -0.70658 : 5     1     1
 STATE 18:  74264.24
                      0.97315     -0.00000     -0.98648 : 3     0     0
                      0.01246      0.00000      0.11162 : 6     1    -1
                      0.01246     -0.00000      0.11162 : 6     1     1
 STATE 19:  75304.24
                      0.97654     -0.17327     -0.97289 : 4     0     0
                      0.01132      0.01866      0.10475 : 5     1    -1
                      0.01132      0.01866      0.10475 : 5     1     1
 STATE 20:  78113.00
                      0.49802      0.00000      0.70570 : 6     1    -1
                      0.49802     -0.00000     -0.70570 : 6     1     1
 STATE 21:  78115.94
                      0.99584      0.02538      0.99760 : 6     1     0
 STATE 22:  78167.65
                      0.02475      0.00000      0.15731 : 3     0     0
                      0.48727      0.00000      0.69805 : 6     1    -1
                      0.48727     -0.00000      0.69805 : 6     1     1
 STATE 23:  85659.07
                      0.49533      0.40189      0.57776 : 7     1    -1
                      0.49533     -0.40189     -0.57776 : 7     1     1
 STATE 24:  85668.74
                      0.49698     -0.53453     -0.45962 : 7     1    -1
                      0.49698     -0.53453     -0.45962 : 7     1     1
 STATE 25:  85675.70
                      0.99349      0.99674     -0.00000 : 7     1     0
 STATE 26:  86706.94
                      0.98660     -0.99328      0.00000 : 5     0     0
 STATE 27:  89639.51
                      0.97641     -0.98500      0.07867 : 8     1     0
 STATE 28:  89651.07
                      0.01416      0.00000      0.11902 : 9     1     0
                      0.48811      0.69865     -0.00000 : 8     1    -1
                      0.48811      0.69865     -0.00000 : 8     1     1
 STATE 29:  89662.06
                      0.49500     -0.70356      0.00000 : 8     1    -1
                      0.49500      0.70356      0.00000 : 8     1     1
 STATE 30:  91083.81
                      0.99253      0.51902      0.85038 : 6     0     0
 STATE 31:  91717.80
                      0.99450     -0.00000     -0.99725 : 7     0     0
 STATE 32:  92222.94
                      0.36569     -0.60472      0.00002 : 8     0     0
                      0.31402      0.00002      0.56037 : 9     1    -1
                      0.31402     -0.00002     -0.56037 : 9     1     1
 STATE 33:  92503.43
                      0.97898     -0.00000     -0.98943 : 9     1     0
 STATE 34:  92506.31
                      0.01596     -0.11253     -0.05742 : 8     1     0
                      0.48886     -0.31781      0.62278 : 9     1    -1
                      0.48886     -0.31781      0.62278 : 9     1     1
 STATE 35:  92890.96
                      0.63237     -0.77385     -0.18312 : 8     0     0
                      0.18370      0.09869     -0.41708 : 9     1    -1
                      0.18370     -0.09869      0.41708 : 9     1     1
 STATE 36: 101242.67
                      0.02814     -0.00000     -0.16774 : 9     0     0
                      0.48557      0.69683     -0.00000 : 10     1    -1
                      0.48557     -0.69683      0.00000 : 10     1     1
 STATE 37: 101340.02
                      0.49886      0.70630     -0.00000 : 10     1    -1
                      0.49886      0.70630      0.00000 : 10     1     1
 STATE 38: 101340.65
                      0.99768     -0.83837     -0.54298 : 10     1     0
 STATE 39: 104273.74
                      0.96965      0.00000      0.98471 : 9     0     0
                      0.01418      0.11907     -0.00000 : 10     1    -1
                      0.01418     -0.11907      0.00000 : 10     1     1
 STATE 40: 107340.57
                      0.99939     -0.91653     -0.39919 : 10     0     0

-----------------------------
TD-DFT/TDA-EXCITATION SPECTRA
-----------------------------

Center of mass = (  7.5589,  7.5589,  6.4783)
Calculating the Dipole integrals                  ... done
Transforming integrals                            ... done
Calculating the Linear Momentum integrals         ... done
Transforming integrals                            ... done
Calculating angular momentum integrals            ... done
Transforming integrals                            ... done

-----------------------------------------------------------------------------
         ABSORPTION SPECTRUM VIA TRANSITION ELECTRIC DIPOLE MOMENTS
-----------------------------------------------------------------------------
State   Energy    Wavelength  fosc         T2        TX        TY        TZ  
        (cm-1)      (nm)                 (au**2)    (au)      (au)      (au) 
-----------------------------------------------------------------------------
   1   43180.0    231.6   0.000000000   0.00000   0.00000   0.00000  -0.00000
   2   49391.3    202.5   0.009630425   0.06419   0.00000   0.25336  -0.00000
   3   74258.8    134.7   0.176904850   0.78427   0.00000  -0.00000  -0.88559
   4   75168.2    133.0   0.136031195   0.59577  -0.77186   0.00000  -0.00000
   5   86699.4    115.3   0.000000000   0.00000  -0.00000  -0.00000  -0.00000
   6   90974.5    109.9   0.855127395   3.09447  -1.75911   0.00000   0.00000
   7   91621.0    109.1   0.654280818   2.35096   0.00000   0.00000   1.53328
   8   92571.7    108.0   0.016317939   0.05803   0.00000   0.24090  -0.00000
   9  104091.5     96.1   0.048507769   0.15342  -0.00000  -0.00000  -0.39168
  10  107270.6     93.2   0.174615246   0.53589  -0.00000  -0.73205   0.00000
  11   38549.3    259.4   spin forbidden (mult=3)
  12   43895.2    227.8   spin forbidden (mult=3)
  13   57821.1    172.9   spin forbidden (mult=3)
  14   63686.6    157.0   spin forbidden (mult=3)
  15   72761.6    137.4   spin forbidden (mult=3)
  16   77990.7    128.2   spin forbidden (mult=3)
  17   85648.7    116.8   spin forbidden (mult=3)
  18   89610.9    111.6   spin forbidden (mult=3)
  19   92383.9    108.2   spin forbidden (mult=3)
  20  101256.3     98.8   spin forbidden (mult=3)

-----------------------------------------------------------------------------
         ABSORPTION SPECTRUM VIA TRANSITION VELOCITY DIPOLE MOMENTS
-----------------------------------------------------------------------------
State   Energy    Wavelength   fosc        P2         PX        PY        PZ  
        (cm-1)      (nm)                 (au**2)     (au)      (au)      (au) 
-----------------------------------------------------------------------------
   1   43180.0    231.6   0.000000000   0.00000   0.00000   0.00000   0.00000
   2   49391.3    202.5   0.062861226   0.02122  -0.00000  -0.14567   0.00000
   3   74258.8    134.7   0.148498635   0.07537  -0.00000   0.00000   0.27453
   4   75168.2    133.0   0.013288090   0.00683   0.08262  -0.00000   0.00000
   5   86699.4    115.3   0.000000000   0.00000   0.00000   0.00000   0.00000
   6   90974.5    109.9   0.516347869   0.32105   0.56661  -0.00000  -0.00000
   7   91621.0    109.1   0.327282176   0.20494  -0.00000  -0.00000  -0.45270
   8   92571.7    108.0   0.001364016   0.00086  -0.00000  -0.02938  -0.00000
   9  104091.5     96.1   0.021538096   0.01532   0.00000   0.00000   0.12378
  10  107270.6     93.2   0.030645095   0.02247   0.00000   0.14989  -0.00000
  11   38549.3    259.4   spin forbidden (mult=3)
  12   43895.2    227.8   spin forbidden (mult=3)
  13   57821.1    172.9   spin forbidden (mult=3)
  14   63686.6    157.0   spin forbidden (mult=3)
  15   72761.6    137.4   spin forbidden (mult=3)
  16   77990.7    128.2   spin forbidden (mult=3)
  17   85648.7    116.8   spin forbidden (mult=3)
  18   89610.9    111.6   spin forbidden (mult=3)
  19   92383.9    108.2   spin forbidden (mult=3)
  20  101256.3     98.8   spin forbidden (mult=3)

-------------------------------------------------------------------
                             CD SPECTRUM
-------------------------------------------------------------------
State  Energy     Wavelength     R         MX        MY        MZ   
       (cm-1)       (nm)     (1e40*cgs)   (au)      (au)      (au)  
-------------------------------------------------------------------
   1   43180.0    231.6     -0.00000   0.00000   0.00000   0.28775
   2   49391.3    202.5      0.00000  -0.17049   0.00000   0.00000
   3   74258.8    134.7     -0.00000  -0.00000  -0.00000   0.00000
   4   75168.2    133.0      0.00000   0.00000   0.41177  -0.00000
   5   86699.4    115.3     -0.00000  -0.00000   0.00000   0.05714
   6   90974.5    109.9      0.00000  -0.00000  -0.00882   0.00000
   7   91621.0    109.1      0.00000  -0.00000   0.00000   0.00000
   8   92571.7    108.0     -0.00000   0.06953  -0.00000  -0.00000
   9  104091.5     96.1     -0.00000   0.00000   0.00000   0.00000
  10  107270.6     93.2      0.00000  -0.12867   0.00000   0.00000
  11   38549.3    259.4 spin forbidden
  12   43895.2    227.8 spin forbidden
  13   57821.1    172.9 spin forbidden
  14   63686.6    157.0 spin forbidden
  15   72761.6    137.4 spin forbidden
  16   77990.7    128.2 spin forbidden
  17   85648.7    116.8 spin forbidden
  18   89610.9    111.6 spin forbidden
  19   92383.9    108.2 spin forbidden
  20  101256.3     98.8 spin forbidden

-------------------------------------------------------------------
         CD SPECTRUM VIA TRANSITION VELOCITY DIPOLE MOMENTS        
-------------------------------------------------------------------
State  Energy     Wavelength     R         MX        MY        MZ   
       (cm-1)       (nm)     (1e40*cgs)   (au)      (au)      (au)  
-------------------------------------------------------------------
   1   43180.0    231.6     -0.00000   0.00000   0.00000   0.28775
   2   49391.3    202.5      0.00000  -0.17049   0.00000   0.00000
   3   74258.8    134.7     -0.00000  -0.00000  -0.00000   0.00000
   4   75168.2    133.0      0.00000   0.00000   0.41177  -0.00000
   5   86699.4    115.3     -0.00000  -0.00000   0.00000   0.05714
   6   90974.5    109.9      0.00000  -0.00000  -0.00882   0.00000
   7   91621.0    109.1      0.00000  -0.00000   0.00000   0.00000
   8   92571.7    108.0      0.00000   0.06953  -0.00000  -0.00000
   9  104091.5     96.1     -0.00000   0.00000   0.00000   0.00000
  10  107270.6     93.2      0.00000  -0.12867   0.00000   0.00000
  11   38549.3    259.4 spin forbidden
  12   43895.2    227.8 spin forbidden
  13   57821.1    172.9 spin forbidden
  14   63686.6    157.0 spin forbidden
  15   72761.6    137.4 spin forbidden
  16   77990.7    128.2 spin forbidden
  17   85648.7    116.8 spin forbidden
  18   89610.9    111.6 spin forbidden
  19   92383.9    108.2 spin forbidden
  20  101256.3     98.8 spin forbidden

-------------------------------------------
SOC CORRECTED TD-DFT/TDA-EXCITATION SPECTRA
--------------------------------------------

---------------------------------------------------------------------------------
SPIN ORBIT CORRECTED ABSORPTION SPECTRUM VIA TRANSITION ELECTRIC DIPOLE MOMENTS
---------------------------------------------------------------------------------
  States    Energy  Wavelength   fosc         T2         TX        TY        TZ  
            (cm-1)    (nm)                  (au**2)     (au)      (au)      (au) 
---------------------------------------------------------------------------------
   0   1   38543.4    259.4   0.000000271   0.00000   0.00000   0.00152   0.00000
   0   2   38545.4    259.4   0.000187189   0.00160   0.03998   0.00000   0.00000
   0   3   38560.2    259.3   0.000165418   0.00141   0.00000   0.00000   0.03758
   0   4   43045.3    232.3   0.000000000   0.00000   0.00000   0.00000   0.00000
   0   5   43930.7    227.6   0.000349685   0.00262   0.05119   0.00000   0.00000
   0   6   43944.4    227.6   0.000481816   0.00361   0.00000   0.00000   0.06008
   0   7   44030.4    227.1   0.000000000   0.00000   0.00000   0.00000   0.00000
   0   8   49396.0    202.4   0.009559414   0.06371   0.00000   0.25241   0.00000
   0   9   57867.9    172.8   0.000037823   0.00022   0.00000   0.01467   0.00000
   0  10   57875.1    172.8   0.000000000   0.00000   0.00000   0.00000   0.00000
   0  11   57884.1    172.8   0.000000016   0.00000   0.00000   0.00000   0.00030
   0  12   63764.8    156.8   0.000000000   0.00000   0.00000   0.00000   0.00000
   0  13   63767.8    156.8   0.000046594   0.00024   0.01551   0.00000   0.00000
   0  14   63770.8    156.8   0.000056218   0.00029   0.00000   0.01704   0.00000
   0  15   72747.7    137.5   0.009033844   0.04088   0.20219   0.00000   0.00000
   0  16   72845.6    137.3   0.000000000   0.00000   0.00000   0.00000   0.00000
   0  17   72848.3    137.3   0.000013967   0.00006   0.00000   0.00794   0.00000
   0  18   74264.2    134.7   0.172677985   0.76548   0.00000   0.00000   0.87492
   0  19   75304.2    132.8   0.128033534   0.55973   0.74815   0.00000   0.00000
   0  20   78113.0    128.0   0.000000000   0.00000   0.00000   0.00000   0.00000
   0  21   78115.9    128.0   0.000009496   0.00004   0.00000   0.00633   0.00000
   0  22   78167.6    127.9   0.004399564   0.01853   0.00000   0.00000   0.13612
   0  23   85659.1    116.7   0.000600277   0.00231   0.04803   0.00000   0.00000
   0  24   85668.7    116.7   0.000000063   0.00000   0.00000   0.00049   0.00000
   0  25   85675.7    116.7   0.001114991   0.00428   0.00000   0.00000   0.06546
   0  26   86706.9    115.3   0.000000000   0.00000   0.00000   0.00000   0.00000
   0  27   89639.5    111.6   0.004193742   0.01540   0.12410   0.00000   0.00000
   0  28   89651.1    111.5   0.000000000   0.00000   0.00000   0.00000   0.00000
   0  29   89662.1    111.5   0.002243706   0.00824   0.00000   0.00000   0.09076
   0  30   91083.8    109.8   0.846963532   3.06125   1.74964   0.00000   0.00000
   0  31   91717.8    109.0   0.649136524   2.33001   0.00000   0.00000   1.52644
   0  32   92222.9    108.4   0.005358997   0.01913   0.00000   0.13831   0.00000
   0  33   92503.4    108.1   0.000000000   0.00000   0.00000   0.00000   0.00000
   0  34   92506.3    108.1   0.001115658   0.00397   0.06301   0.00000   0.00000
   0  35   92891.0    107.7   0.011094871   0.03932   0.00000   0.19830   0.00000
   0  36  101242.7     98.8   0.001890195   0.00615   0.00000   0.00000   0.07840
   0  37  101340.0     98.7   0.000000000   0.00000   0.00000   0.00000   0.00000
   0  38  101340.7     98.7   0.000156818   0.00051   0.02257   0.00000   0.00000
   0  39  104273.7     95.9   0.046677942   0.14737   0.00000   0.00000   0.38389
   0  40  107340.6     93.2   0.174365181   0.53478   0.00000   0.73128   0.00000

---------------------------------------------------------------------------------
SPIN ORBIT CORRECTED ABSORPTION SPECTRUM VIA TRANSITION VELOCITY DIPOLE MOMENTS
---------------------------------------------------------------------------------
  States    Energy  Wavelength   fosc         P2         PX        PY        PZ  
            (cm-1)    (nm)                  (au**2)     (au)      (au)      (au) 
---------------------------------------------------------------------------------
   0   1   38543.4    259.4   0.000082829   0.00002   0.00000   0.00467   0.00000
   0   2   38545.4    259.4   0.000019612   0.00001   0.00227   0.00000   0.00000
   0   3   38560.2    259.3   0.000057798   0.00002   0.00000   0.00000   0.00390
   0   4   43045.3    232.3   0.000000000   0.00000   0.00000   0.00000   0.00000
   0   5   43930.7    227.6   0.000086109   0.00003   0.00508   0.00000   0.00000
   0   6   43944.4    227.6   0.000157403   0.00005   0.00000   0.00000   0.00688
   0   7   44030.4    227.1   0.000000000   0.00000   0.00000   0.00000   0.00000
   0   8   49396.0    202.4   0.062471216   0.02109   0.00000   0.14522   0.00000
   0   9   57867.9    172.8   0.000045802   0.00002   0.00000   0.00426   0.00000
   0  10   57875.1    172.8   0.000000000   0.00000   0.00000   0.00000   0.00000
   0  11   57884.1    172.8   0.000014112   0.00001   0.00000   0.00000   0.00236
   0  12   63764.8    156.8   0.000000000   0.00000   0.00000   0.00000   0.00000
   0  13   63767.8    156.8   0.000077560   0.00003   0.00581   0.00000   0.00000
   0  14   63770.8    156.8   0.000108278   0.00005   0.00000   0.00687   0.00000
   0  15   72747.7    137.5   0.002612187   0.00130   0.03604   0.00000   0.00000
   0  16   72845.6    137.3   0.000000000   0.00000   0.00000   0.00000   0.00000
[...]
   0  27   89639.5    111.6   0.004193742   0.01540 ( -0.12371,  0.00988) (  0.00000, -0.00000) (  0.00000, -0.00000)
   0  28   89651.1    111.5   0.000000000   0.00000 ( -0.00000,  0.00000) ( -0.00000, -0.00000) ( -0.00000,  0.00000)
   0  29   89662.1    111.5   0.002243706   0.00824 ( -0.00000,  0.00000) (  0.00000, -0.00000) (  0.09076,  0.00000)
   0  30   91083.8    109.8   0.846963532   3.06125 (  1.49345, -0.91151) ( -0.00000,  0.00000) ( -0.00000,  0.00000)
   0  31   91717.8    109.0   0.649136524   2.33001 (  0.00000, -0.00000) (  0.00000, -0.00000) (  1.52644, -0.00000)
   0  32   92222.9    108.4   0.005358997   0.01913 ( -0.00000, -0.00000) ( -0.00000, -0.13831) ( -0.00000, -0.00000)
   0  33   92503.4    108.1   0.000000000   0.00000 (  0.00000, -0.00000) ( -0.00000,  0.00000) ( -0.00000, -0.00000)
   0  34   92506.3    108.1   0.001115658   0.00397 (  0.05613,  0.02864) ( -0.00000, -0.00000) (  0.00000,  0.00000)
   0  35   92891.0    107.7   0.011094871   0.03932 (  0.00000, -0.00000) (  0.04566, -0.19297) ( -0.00000,  0.00000)
   0  36  101242.7     98.8   0.001890195   0.00615 ( -0.00000,  0.00000) ( -0.00000,  0.00000) ( -0.07840,  0.00000)
   0  37  101340.0     98.7   0.000000000   0.00000 ( -0.00000,  0.00000) ( -0.00000, -0.00000) ( -0.00000, -0.00000)
   0  38  101340.7     98.7   0.000156818   0.00051 (  0.01894,  0.01227) ( -0.00000, -0.00000) ( -0.00000, -0.00000)
   0  39  104273.7     95.9   0.046677942   0.14737 (  0.00000, -0.00000) (  0.00000, -0.00000) (  0.38389, -0.00000)
   0  40  107340.6     93.2   0.174365181   0.53478 ( -0.00000,  0.00000) ( -0.29201,  0.67045) (  0.00000, -0.00000)

---------------------------------------------------------------------------------------------------------------------
                    SOC CORRECTED ABSORPTION SPECTRUM VIA TRANSITION VELOCITY DIPOLE MOMENTS*  
---------------------------------------------------------------------------------------------------------------------
   State    Energy  Wavelength   fosc         P2              PX                    PY                    PZ  
            (cm-1)    (nm)                  (au**2)          (au)                  (au)                  (au) 
---------------------------------------------------------------------------------------------------------------------
   0   1   38543.4    259.4   0.000082829   0.00002 ( -0.00000, -0.00000) ( -0.00278, -0.00375) (  0.00000,  0.00000)
   0   2   38545.4    259.4   0.000019612   0.00001 ( -0.00076,  0.00214) (  0.00000, -0.00000) (  0.00000, -0.00000)
   0   3   38560.2    259.3   0.000057798   0.00002 (  0.00000,  0.00000) ( -0.00000, -0.00000) (  0.00000, -0.00390)
   0   4   43045.3    232.3   0.000000000   0.00000 (  0.00000, -0.00000) (  0.00000,  0.00000) (  0.00000,  0.00000)
   0   5   43930.7    227.6   0.000086109   0.00003 ( -0.00043,  0.00507) (  0.00000, -0.00000) (  0.00000, -0.00000)
   0   6   43944.4    227.6   0.000157403   0.00005 ( -0.00000,  0.00000) ( -0.00000,  0.00000) (  0.00000,  0.00688)
   0   7   44030.4    227.1   0.000000000   0.00000 (  0.00000,  0.00000) (  0.00000, -0.00000) (  0.00000,  0.00000)
   0   8   49396.0    202.4   0.062471216   0.02109 ( -0.00000, -0.00000) ( -0.14505, -0.00704) (  0.00000,  0.00000)
   0   9   57867.9    172.8   0.000045802   0.00002 (  0.00000,  0.00000) (  0.00423,  0.00046) ( -0.00000, -0.00000)
   0  10   57875.1    172.8   0.000000000   0.00000 ( -0.00000, -0.00000) ( -0.00000,  0.00000) (  0.00000,  0.00000)
   0  11   57884.1    172.8   0.000014112   0.00001 (  0.00000, -0.00000) ( -0.00000, -0.00000) (  0.00000, -0.00236)
   0  12   63764.8    156.8   0.000000000   0.00000 (  0.00000,  0.00000) ( -0.00000,  0.00000) ( -0.00000,  0.00000)
   0  13   63767.8    156.8   0.000077560   0.00003 (  0.00137, -0.00565) ( -0.00000,  0.00000) ( -0.00000,  0.00000)
   0  14   63770.8    156.8   0.000108278   0.00005 (  0.00000,  0.00000) (  0.00687,  0.00008) ( -0.00000, -0.00000)
   0  15   72747.7    137.5   0.002612187   0.00130 ( -0.03410,  0.01167) (  0.00000, -0.00000) (  0.00000, -0.00000)
   0  16   72845.6    137.3   0.000000000   0.00000 ( -0.00000, -0.00000) ( -0.00000, -0.00000) ( -0.00000,  0.00000)
   0  17   72848.3    137.3   0.000020006   0.00001 (  0.00000, -0.00000) (  0.00316, -0.00002) ( -0.00000,  0.00000)
   0  18   74264.2    134.7   0.145017658   0.07361 (  0.00000, -0.00000) ( -0.00000,  0.00000) ( -0.00000,  0.27130)
   0  19   75304.2    132.8   0.011721068   0.00603 (  0.01362,  0.07647) ( -0.00000, -0.00000) (  0.00000,  0.00000)
   0  20   78113.0    128.0   0.000000000   0.00000 (  0.00000,  0.00000) ( -0.00000,  0.00000) ( -0.00000, -0.00000)
   0  21   78115.9    128.0   0.000020664   0.00001 ( -0.00000,  0.00000) ( -0.00332,  0.00008) (  0.00000, -0.00000)
   0  22   78167.6    127.9   0.003440388   0.00184 (  0.00000, -0.00000) (  0.00000, -0.00000) (  0.00000, -0.04287)
   0  23   85659.1    116.7   0.000301305   0.00018 (  0.01090, -0.00758) ( -0.00000,  0.00000) ( -0.00000,  0.00000)
   0  24   85668.7    116.7   0.000003823   0.00000 (  0.00000,  0.00000) (  0.00113,  0.00098) ( -0.00000, -0.00000)
   0  25   85675.7    116.7   0.000367112   0.00021 (  0.00000,  0.00000) (  0.00000,  0.00000) (  0.00000,  0.01466)
   0  26   86706.9    115.3   0.000000000   0.00000 (  0.00000,  0.00000) (  0.00000, -0.00000) (  0.00000,  0.00000)
   0  27   89639.5    111.6   0.002176838   0.00133 (  0.00291,  0.03640) ( -0.00000, -0.00000) ( -0.00000, -0.00000)
   0  28   89651.1    111.5   0.000000000   0.00000 (  0.00000,  0.00000) ( -0.00000, -0.00000) (  0.00000,  0.00000)
   0  29   89662.1    111.5   0.001094487   0.00067 (  0.00000,  0.00000) ( -0.00000, -0.00000) (  0.00000, -0.02590)
   0  30   91083.8    109.8   0.511084830   0.31816 ( -0.29385, -0.48146) (  0.00000,  0.00000) (  0.00000,  0.00000)
   0  31   91717.8    109.0   0.324937977   0.20369 ( -0.00000, -0.00000) ( -0.00000, -0.00000) ( -0.00000, -0.45132)
   0  32   92222.9    108.4   0.000361612   0.00023 ( -0.00000,  0.00000) ( -0.01510,  0.00000) ( -0.00000,  0.00000)
   0  33   92503.4    108.1   0.000000000   0.00000 ( -0.00000, -0.00000) (  0.00000,  0.00000) (  0.00000,  0.00000)
   0  34   92506.3    108.1   0.000655328   0.00041 (  0.00925, -0.01813) ( -0.00000,  0.00000) (  0.00000, -0.00000)
   0  35   92891.0    107.7   0.001036590   0.00066 ( -0.00000, -0.00000) ( -0.02496, -0.00591) (  0.00000,  0.00000)
   0  36  101242.7     98.8   0.000677474   0.00047 (  0.00000,  0.00000) (  0.00000,  0.00000) (  0.00000,  0.02165)
   0  37  101340.0     98.7   0.000000000   0.00000 (  0.00000,  0.00000) ( -0.00000, -0.00000) ( -0.00000,  0.00000)
   0  38  101340.7     98.7   0.000107533   0.00007 (  0.00469, -0.00724) ( -0.00000,  0.00000) ( -0.00000,  0.00000)
   0  39  104273.7     95.9   0.020730007   0.01477 ( -0.00000, -0.00000) ( -0.00000, -0.00000) ( -0.00000, -0.12155)
   0  40  107340.6     93.2   0.030555287   0.02242 (  0.00000,  0.00000) (  0.13727,  0.05978) ( -0.00000, -0.00000)

-------------------------------------------------------------------------------------------------------
                                     SOC CORRECTED CD SPECTRUM*  
-------------------------------------------------------------------------------------------------------
   State    Energy  Wavelength      R               MX                    MY                    MZ  
            (cm-1)     (nm)      (1e40*sgs)         (au)                  (au)                  (au) 
-------------------------------------------------------------------------------------------------------
   0   1   38543.4    259.4      0.00000 (  0.00013,  0.00018) ( -0.00000, -0.00000) ( -0.00000, -0.00000)
   0   2   38545.4    259.4     -0.00000 (  0.00000, -0.00000) (  0.00291, -0.00818) ( -0.00000,  0.00000)
   0   3   38560.2    259.3      0.00000 (  0.00000,  0.00000) ( -0.00000, -0.00000) (  0.00000, -0.00000)
   0   4   43045.3    232.3     -0.00000 ( -0.00000, -0.00000) ( -0.00000, -0.00000) ( -0.26737, -0.00000)
   0   5   43930.7    227.6      0.00000 ( -0.00000,  0.00000) ( -0.00016,  0.00186) (  0.00000, -0.00000)
   0   6   43944.4    227.6      0.00000 (  0.00000,  0.00000) ( -0.00000, -0.00000) (  0.00000,  0.00000)
   0   7   44030.4    227.1     -0.00000 ( -0.00000,  0.00000) ( -0.00000, -0.00000) ( -0.10562,  0.00000)
   0   8   49396.0    202.4      0.00000 (  0.17058,  0.00828) ( -0.00000, -0.00000) ( -0.00000, -0.00000)
   0   9   57867.9    172.8     -0.00000 (  0.00799,  0.00087) ( -0.00000, -0.00000) (  0.00000,  0.00000)
   0  10   57875.1    172.8     -0.00000 (  0.00000,  0.00000) (  0.00000, -0.00000) (  0.01321,  0.00000)
   0  11   57884.1    172.8     -0.00000 ( -0.00000, -0.00000) (  0.00000, -0.00000) (  0.00000,  0.00000)
   0  12   63764.8    156.8     -0.00000 (  0.00000, -0.00000) (  0.00000,  0.00000) (  0.00015, -0.00000)
   0  13   63767.8    156.8      0.00000 (  0.00000, -0.00000) (  0.00252, -0.01042) ( -0.00000,  0.00000)
   0  14   63770.8    156.8     -0.00000 ( -0.00130, -0.00002) ( -0.00000,  0.00000) (  0.00000,  0.00000)
   0  15   72747.7    137.5      0.00000 (  0.00000, -0.00000) (  0.06129, -0.02097) ( -0.00000,  0.00000)
   0  16   72845.6    137.3     -0.00000 ( -0.00000, -0.00000) (  0.00000,  0.00000) (  0.00302,  0.00000)
   0  17   72848.3    137.3     -0.00000 (  0.00133, -0.00001) ( -0.00000,  0.00000) ( -0.00000,  0.00000)
   0  18   74264.2    134.7     -0.00000 ( -0.00000,  0.00000) ( -0.00000,  0.00000) ( -0.00000, -0.00000)
   0  19   75304.2    132.8      0.00000 ( -0.00000, -0.00000) ( -0.07123, -0.39993) (  0.00000,  0.00000)
   0  20   78113.0    128.0      0.00000 ( -0.00000,  0.00000) ( -0.00000,  0.00000) ( -0.00837,  0.00000)
   0  21   78115.9    128.0      0.00000 (  0.00548, -0.00014) ( -0.00000,  0.00000) ( -0.00000,  0.00000)
   0  22   78167.6    127.9     -0.00000 (  0.00000, -0.00000) ( -0.00000,  0.00000) (  0.00000,  0.00000)
   0  23   85659.1    116.7      0.00000 (  0.00000, -0.00000) (  0.00590, -0.00410) ( -0.00000,  0.00000)
   0  24   85668.7    116.7     -0.00000 ( -0.00172, -0.00148) (  0.00000,  0.00000) ( -0.00000, -0.00000)
   0  25   85675.7    116.7      0.00000 ( -0.00000, -0.00000) (  0.00000,  0.00000) ( -0.00000,  0.00000)
   0  26   86706.9    115.3     -0.00000 (  0.00000,  0.00000) ( -0.00000,  0.00000) ( -0.05674,  0.00000)
   0  27   89639.5    111.6      0.00000 ( -0.00000, -0.00000) ( -0.00029, -0.00357) (  0.00000,  0.00000)
   0  28   89651.1    111.5      0.00000 (  0.00000,  0.00000) (  0.00000, -0.00000) (  0.00415, -0.00000)
   0  29   89662.1    111.5      0.00000 (  0.00000,  0.00000) ( -0.00000, -0.00000) (  0.00000, -0.00000)
   0  30   91083.8    109.8      0.00000 ( -0.00000, -0.00000) ( -0.00451, -0.00739) (  0.00000,  0.00000)
   0  31   91717.8    109.0      0.00000 ( -0.00000,  0.00000) ( -0.00000, -0.00000) ( -0.00000, -0.00000)
   0  32   92222.9    108.4     -0.00000 ( -0.03615,  0.00000) (  0.00000, -0.00000) (  0.00000, -0.00000)
   0  33   92503.4    108.1      0.00000 ( -0.00000,  0.00000) ( -0.00000, -0.00000) ( -0.00683,  0.00000)
   0  34   92506.3    108.1      0.00000 (  0.00000, -0.00000) (  0.00023, -0.00044) (  0.00000, -0.00000)
   0  35   92891.0    107.7     -0.00000 ( -0.05825, -0.01378) (  0.00000,  0.00000) (  0.00000,  0.00000)
   0  36  101242.7     98.8     -0.00000 (  0.00000, -0.00000) (  0.00000, -0.00000) ( -0.00000, -0.00000)
   0  37  101340.0     98.7     -0.00000 ( -0.00000, -0.00000) (  0.00000,  0.00000) (  0.00077, -0.00000)
   0  38  101340.7     98.7     -0.00000 (  0.00000, -0.00000) (  0.00166, -0.00256) ( -0.00000,  0.00000)
   0  39  104273.7     95.9     -0.00000 ( -0.00000,  0.00000) (  0.00000,  0.00000) (  0.00000,  0.00000)
   0  40  107340.6     93.2      0.00000 (  0.11773,  0.05127) ( -0.00000, -0.00000) ( -0.00000, -0.00000)

-------------------------------------------------------------------------------------------------------
                    SOC CORRECTED CD SPECTRUM VIA TRANSITION VELOCITY DIPOLE MOMENTS                   
-------------------------------------------------------------------------------------------------------
   State    Energy  Wavelengt      R               MX                    MY                    MZ  
            (cm-1)    (nm)     (1e40*sgs)         (au)                  (au)                  (au) 
-------------------------------------------------------------------------------------------------------
   0   1   38543.4    259.4     -0.00000 (  0.00013,  0.00018) ( -0.00000, -0.00000) ( -0.00000, -0.00000)
   0   2   38545.4    259.4      0.00000 (  0.00000, -0.00000) (  0.00291, -0.00818) ( -0.00000,  0.00000)
   0   3   38560.2    259.3     -0.00000 (  0.00000,  0.00000) ( -0.00000, -0.00000) (  0.00000, -0.00000)
   0   4   43045.3    232.3      0.00000 ( -0.00000, -0.00000) ( -0.00000, -0.00000) ( -0.26737, -0.00000)
   0   5   43930.7    227.6      0.00000 ( -0.00000,  0.00000) ( -0.00016,  0.00186) (  0.00000, -0.00000)
   0   6   43944.4    227.6     -0.00000 (  0.00000,  0.00000) ( -0.00000, -0.00000) (  0.00000,  0.00000)
   0   7   44030.4    227.1      0.00000 ( -0.00000,  0.00000) ( -0.00000, -0.00000) ( -0.10562,  0.00000)
   0   8   49396.0    202.4     -0.00000 (  0.17058,  0.00828) ( -0.00000, -0.00000) ( -0.00000, -0.00000)
   0   9   57867.9    172.8     -0.00000 (  0.00799,  0.00087) ( -0.00000, -0.00000) (  0.00000,  0.00000)
   0  10   57875.1    172.8     -0.00000 (  0.00000,  0.00000) (  0.00000, -0.00000) (  0.01321,  0.00000)
   0  11   57884.1    172.8      0.00000 ( -0.00000, -0.00000) (  0.00000, -0.00000) (  0.00000,  0.00000)
   0  12   63764.8    156.8      0.00000 (  0.00000, -0.00000) (  0.00000,  0.00000) (  0.00015, -0.00000)
   0  13   63767.8    156.8     -0.00000 (  0.00000, -0.00000) (  0.00252, -0.01042) ( -0.00000,  0.00000)
   0  14   63770.8    156.8      0.00000 ( -0.00130, -0.00002) ( -0.00000,  0.00000) (  0.00000,  0.00000)
   0  15   72747.7    137.5     -0.00000 (  0.00000, -0.00000) (  0.06129, -0.02097) ( -0.00000,  0.00000)
   0  16   72845.6    137.3      0.00000 ( -0.00000, -0.00000) (  0.00000,  0.00000) (  0.00302,  0.00000)
   0  17   72848.3    137.3     -0.00000 (  0.00133, -0.00001) ( -0.00000,  0.00000) ( -0.00000,  0.00000)
   0  18   74264.2    134.7      0.00000 ( -0.00000,  0.00000) ( -0.00000,  0.00000) ( -0.00000, -0.00000)
   0  19   75304.2    132.8     -0.00000 ( -0.00000, -0.00000) ( -0.07123, -0.39993) (  0.00000,  0.00000)
   0  20   78113.0    128.0     -0.00000 ( -0.00000,  0.00000) ( -0.00000,  0.00000) ( -0.00837,  0.00000)
   0  21   78115.9    128.0     -0.00000 (  0.00548, -0.00014) ( -0.00000,  0.00000) ( -0.00000,  0.00000)
   0  22   78167.6    127.9      0.00000 (  0.00000, -0.00000) ( -0.00000,  0.00000) (  0.00000,  0.00000)
   0  23   85659.1    116.7     -0.00000 (  0.00000, -0.00000) (  0.00590, -0.00410) ( -0.00000,  0.00000)
   0  24   85668.7    116.7      0.00000 ( -0.00172, -0.00148) (  0.00000,  0.00000) ( -0.00000, -0.00000)
   0  25   85675.7    116.7     -0.00000 ( -0.00000, -0.00000) (  0.00000,  0.00000) ( -0.00000,  0.00000)
   0  26   86706.9    115.3      0.00000 (  0.00000,  0.00000) ( -0.00000,  0.00000) ( -0.05674,  0.00000)
   0  27   89639.5    111.6     -0.00000 ( -0.00000, -0.00000) ( -0.00029, -0.00357) (  0.00000,  0.00000)
   0  28   89651.1    111.5     -0.00000 (  0.00000,  0.00000) (  0.00000, -0.00000) (  0.00415, -0.00000)
   0  29   89662.1    111.5     -0.00000 (  0.00000,  0.00000) ( -0.00000, -0.00000) (  0.00000, -0.00000)
   0  30   91083.8    109.8     -0.00000 ( -0.00000, -0.00000) ( -0.00451, -0.00739) (  0.00000,  0.00000)
   0  31   91717.8    109.0     -0.00000 ( -0.00000,  0.00000) ( -0.00000, -0.00000) ( -0.00000, -0.00000)
   0  32   92222.9    108.4     -0.00000 ( -0.03615,  0.00000) (  0.00000, -0.00000) (  0.00000, -0.00000)
   0  33   92503.4    108.1      0.00000 ( -0.00000,  0.00000) ( -0.00000, -0.00000) ( -0.00683,  0.00000)
   0  34   92506.3    108.1     -0.00000 (  0.00000, -0.00000) (  0.00023, -0.00044) (  0.00000, -0.00000)
   0  35   92891.0    107.7     -0.00000 ( -0.05825, -0.01378) (  0.00000,  0.00000) (  0.00000,  0.00000)
   0  36  101242.7     98.8      0.00000 (  0.00000, -0.00000) (  0.00000, -0.00000) ( -0.00000, -0.00000)
   0  37  101340.0     98.7      0.00000 ( -0.00000, -0.00000) (  0.00000,  0.00000) (  0.00077, -0.00000)
   0  38  101340.7     98.7     -0.00000 (  0.00000, -0.00000) (  0.00166, -0.00256) ( -0.00000,  0.00000)
   0  39  104273.7     95.9      0.00000 ( -0.00000,  0.00000) (  0.00000,  0.00000) (  0.00000,  0.00000)
   0  40  107340.6     93.2     -0.00000 (  0.11773,  0.05127) ( -0.00000, -0.00000) ( -0.00000, -0.00000)

*The complex numbers are printed as (real, imaginary)

The electronic components of the SOC ground state dipole moment in a.u. are:
           X                     Y                     Z
( -0.00000,  0.00000) ( -0.00000, -0.00000) ( -1.83383, -0.00000)

Total run time:       18.663 sec

           *** ORCA-CIS/TD-DFT FINISHED WITHOUT ERROR ***

Maximum memory used throughout the entire CIS-calculation: 115.4 MB

---------------------------
SOC CIS/TD-DFT TOTAL ENERGY
---------------------------

    E(SCF)        =  -2401.476446945 Eh
    E(SOC CIS)    =      0.175347825 Eh (SOC Root  1)
    ----------------------------- ---------
    E(tot)        =  -2401.301099120 Eh


-------------------------   --------------------
FINAL SINGLE POINT ENERGY     -2401.301099120030
-------------------------   --------------------


                            ***************************************
                            *     ORCA property calculations      *
                            ***************************************

                                    ---------------------
                                    Active property flags
                                    ---------------------
   (+) Dipole Moment


------------------------------------------------------------------------------
                       ORCA ELECTRIC PROPERTIES CALCULATION
------------------------------------------------------------------------------

Dipole Moment Calculation                       ... on
Quadrupole Moment Calculation                   ... off
Polarizability Calculation                      ... off
GBWName                                         ... orca.gbw
Electron density                                ... orca.scfp
The origin for moment calculation is the CENTER OF MASS  = ( 7.558904,  7.558904  6.478291)

-------------
DIPOLE MOMENT
-------------
                                X             Y             Z
Electronic contribution:     -0.00000      -0.00000      -1.83197
Nuclear contribution   :      0.00000       0.00000       2.18260
                        -----------------------------------------
Total Dipole Moment    :      0.00000       0.00000       0.35062
                        -----------------------------------------
Magnitude (a.u.)       :      0.35062
Magnitude (Debye)      :      0.89121



--------------------
Rotational spectrum 
--------------------
 
Rotational constants in cm-1:     7.831340     7.582886     3.852556 
Rotational constants in MHz : 234777.681424 227329.215887 115496.709823 

 Dipole components along the rotational axes: 
x,y,z [a.u.] :    -0.000000    -0.350623     0.000000 
x,y,z [Debye]:    -0.000000    -0.891212     0.000000 

 

Timings for individual modules:

Sum of individual times         ...       28.989 sec (=   0.483 min)
GTO integral calculation        ...        0.172 sec (=   0.003 min)   0.6 %
SCF iterations                  ...       10.144 sec (=   0.169 min)  35.0 %
CIS module                      ...       18.674 sec (=   0.311 min)  64.4 %
                             ****ORCA TERMINATED NORMALLY****
TOTAL RUN TIME: 0 days 0 hours 0 minutes 29 seconds 307 msec
