 hostname is         elgar

 data group $actual step is not empty 
 due to the abend of dscf


 dscf (elgar) : TURBOMOLE V7.0( 19819 ) 16 Jun 2015 at 11:29:46
 Copyright (C) 2015 TURBOMOLE GmbH, Karlsruhe


    2024-02-12 11:50:34.750 



                             d s c f - program

                   idea & directorship : reinhart ahlrichs
                   program development : marco haeser
                                         michael baer
                           dft version : oliver treutler


                          quantum chemistry group
                          universitaet  karlsruhe
                                  germany




                          References             
                                                 
          TURBOMOLE:                             
              R. Ahlrichs, M. Baer, M. Haeser, H. Horn, and
              C. Koelmel
              Electronic structure calculations on workstation
              computers: the program system TURBOMOLE
              Chem. Phys. Lett. 162: 165 (1989)
          Density Functional:                              
              O. Treutler and R. Ahlrichs                      
              Efficient Molecular Numerical Integration Schemes
              J. Chem. Phys. 102: 346 (1995)                   
          Parallel Version:                                
              Performance of parallel TURBOMOLE for Density    
              Functional Calculations                          
              M. v. Arnim and R. Ahlrichs                      
              J. Comp. Chem. 19: 1746 (1998)                   
                                         




              +--------------------------------------------------+
              | Atomic coordinate, charge and isotop information |
              +--------------------------------------------------+

                    atomic coordinates            atom    charge  isotop
          0.00000000    0.00000000    1.60347294    c      6.000     0
          0.00000000    0.00000000   -3.59896024    c      6.000     0
          2.29878830    0.00000000    0.33655082    c      6.000     0
         -2.29878830    0.00000000    0.33655082    c      6.000     0
         -2.28322845    0.00000000   -2.28896805    c      6.000     0
          2.28322845    0.00000000   -2.28896805    c      6.000     0
          4.04004563    0.00000000    1.40275882    h      1.000     0
         -4.04004563    0.00000000    1.40275882    h      1.000     0
         -4.05541522    0.00000000   -3.31160563    h      1.000     0
          4.05541522    0.00000000   -3.31160563    h      1.000     0
          0.00000000    0.00000000   -5.64617213    h      1.000     0
          0.00000000    0.00000000    4.40465228    n      7.000     0
          2.04887035    0.00000000    5.47976761    o      8.000     0
         -2.04887035    0.00000000    5.47976761    o      8.000     0
 
       center of nuclear mass  :    0.00000000    0.00000000    1.27226729
       center of nuclear charge:    0.00000000    0.00000000    1.15067268

              +--------------------------------------------------+
              |               basis set information              |
              +--------------------------------------------------+

              we will work with the 1s 3p 5d 7f 9g ... basis set
              ...i.e. with spherical basis functions...

   type   atoms  prim   cont   basis
   ---------------------------------------------------------------------------
    c        6     46     31   def2-TZVP   [5s3p2d1f|11s6p2d1f]
    h        5      8      6   def2-TZVP   [3s1p|5s1p]
    n        1     46     31   def2-TZVP   [5s3p2d1f|11s6p2d1f]
    o        2     46     31   def2-TZVP   [5s3p2d1f|11s6p2d1f]
   ---------------------------------------------------------------------------
   total:   14    454    309
   ---------------------------------------------------------------------------

   total number of primitive shells          :   66
   total number of contracted shells         :  119
   total number of cartesian basis functions :  354
   total number of SCF-basis functions       :  309


 integral neglect threshold       :  0.94E-12
 integral storage threshold THIZE :  0.10E-04
 integral storage threshold THIME :         5


 DENSITY CONVERGENCE CHECK SWITCHED ON !
 SCF CONVERGENCE IF RMS(delta[D]) <     0.1000000000E-06


 symmetry group of the molecule :   c2v

 the group has the following generators :
   c2(z)
   mirror plane sigma(xz)

    4 symmetry operations found

 there are 4 real representations :   a1   a2   b1   b2  

 maximum number of shells which are related by symmetry :  2


    mo occupation :
   irrep   mo's   occupied
    a1     119       16
    a2      41        2
    b1      95       11
    b2      54        3
 
 number of basis functions   :          309
 number of occupied orbitals :           32
 
  
           ------------------
           density functional
           ------------------
 PBE0 hybrid functional
 exchange:    3/4 (LDA+PBE) + 1/4 HF
 correlation: LDA (PW) + PBE
 spherical integration : Lebedev's spherical grid
 spherical gridsize    :           6
    i.e. gridpoints    :         974
 value for diffuse not defined
 radial integration    : Chebyshev 2nd kind (scaling 3)
 radial gridsize       :          10
 integration cells     :           9
 partition function    : becke
 partition sharpness   :           3
  

          ------------------------
          nuclear repulsion energy  :   412.540315295    
          ------------------------

 
          -----------------
          -S,T+V- integrals
          -----------------

 1e-integrals will be neglected if expon. factor < 0.944057E-13
 
   Difference densities algorithm switched on.
   The maximal number of linear combinations of
   difference densities is          20 .

 DIIS switched on: error vector is FDS-SDF
 Max. Iterations for DIIS is     :   4
 DIIS matrix (see manual) 
    Scaling factor of diagonals  :  1.200
    threshold for scaling factor :  0.000

 scf convergence criterion : increment of total energy < .1000000D-07
                  and increment of one-electron energy < .1000000D-04


 <geterg> : there is no data group $energy 

  MOs are in ASCII format !


 reading orbital data $scfmo  from file mos . 

 orbital characterization : scfdump=7
 

 DSCF restart information will be dumped onto file mos

          Overall gridpoints after grid construction =        123467
 
                                              current damping :  1.000
 ITERATION  ENERGY          1e-ENERGY        2e-ENERGY     RMS[dD(SAO)]   TOL
   1  -436.38264954497    -1408.9428910     560.01992614    0.000D+00 0.942D-12
                            Exc =   -43.970850359064     N = 63.999999848    
          max. resid. norm for Fia-block=  7.545D-02 for orbital      1a1        
          max. resid. fock norm         =  1.498D-01 for orbital     95b1        
          Delta Eig. =    20.1426408545 eV 
 
                                              current damping :  0.950
 ITERATION  ENERGY          1e-ENERGY        2e-ENERGY     RMS[dD(SAO)]   TOL
   2  -436.41104758908    -1409.7436273     560.79226441    0.160D-02 0.596D-12
                            Exc =   -44.003646888115     N = 63.999999844    
          Norm of current diis error: 0.50937    
          max. resid. norm for Fia-block=  4.158D-02 for orbital      1b1        
          max. resid. fock norm         =  7.351D-02 for orbital     95b1        
          Delta Eig. =    10.1677888477 eV 
 
                                              current damping :  0.800
 ITERATION  ENERGY          1e-ENERGY        2e-ENERGY     RMS[dD(SAO)]   TOL
   3  -436.42212512681    -1409.9431653     560.98072488    0.120D-02 0.429D-12
                            Exc =   -44.009343831229     N = 63.999999840    
          Norm of current diis error: 0.31228    
          max. resid. norm for Fia-block=  2.341D-02 for orbital      1b2        
          max. resid. fock norm         =  3.420D-02 for orbital     95b1        
          Delta Eig. =     5.2642806369 eV 
 
                                              current damping :  0.650
 ITERATION  ENERGY          1e-ENERGY        2e-ENERGY     RMS[dD(SAO)]   TOL
   4  -436.42714313019    -1410.0737244     561.10626593    0.986D-03 0.342D-12
                            Exc =   -44.009252531311     N = 63.999999837    
          Norm of current diis error: 0.18226    
          max. resid. norm for Fia-block=  1.395D-02 for orbital      1b2        
          max. resid. fock norm         =  1.607D-02 for orbital     95b1        
          Delta Eig. =     2.6504556661 eV 
 
                                              current damping :  0.500
 ITERATION  ENERGY          1e-ENERGY        2e-ENERGY     RMS[dD(SAO)]   TOL
   5  -436.42920969295    -1410.1629180     561.19339299    0.774D-03 0.293D-12
                            Exc =   -44.011138232098     N = 63.999999835    
          Norm of current diis error: 0.10386    
          max. resid. norm for Fia-block=  9.735D-03 for orbital      1b2        
          max. resid. fock norm         =  9.739D-03 for orbital      1b2        
 mo-orthogonalization: Cholesky decomposition
          Delta Eig. =     1.1378717385 eV 
 
                                              current damping :  0.350
 ITERATION  ENERGY          1e-ENERGY        2e-ENERGY     RMS[dD(SAO)]   TOL
   6  -436.43003968503    -1410.2211003     561.25074527    0.596D-03 0.262D-12
                            Exc =   -44.011696073196     N = 63.999999834    
          Norm of current diis error: 0.56885E-01
          max. resid. norm for Fia-block=  5.165D-03 for orbital      1b2        
          max. resid. fock norm         =  5.169D-03 for orbital      1b2        
          Delta Eig. =     0.4543110941 eV 
 
                                              current damping :  0.200
 ITERATION  ENERGY          1e-ENERGY        2e-ENERGY     RMS[dD(SAO)]   TOL
   7  -436.43034606377    -1410.2408029     561.27014152    0.425D-03 0.243D-12
                            Exc =   -44.012029614890     N = 63.999999833    
          Norm of current diis error: 0.31394E-01
          max. resid. norm for Fia-block=  3.735D-03 for orbital      1b2        
          max. resid. fock norm         =  3.736D-03 for orbital      1b2        
          Delta Eig. =     0.1312030069 eV 
 
                                              current damping :  0.100
 ITERATION  ENERGY          1e-ENERGY        2e-ENERGY     RMS[dD(SAO)]   TOL
   8  -436.43045993768    -1410.2571475     561.28637223    0.285D-03 0.229D-12
                            Exc =   -44.011654405432     N = 63.999999833    
          Norm of current diis error: 0.15783E-01
          max. resid. norm for Fia-block=  1.525D-03 for orbital     16a1        
          max. resid. fock norm         =  1.601D-03 for orbital     16a1        
          Delta Eig. =     0.0730042517 eV 
 
                                              current damping :  0.100
 ITERATION  ENERGY          1e-ENERGY        2e-ENERGY     RMS[dD(SAO)]   TOL
   9  -436.43049381210    -1410.2600094     561.28920031    0.168D-03 0.218D-12
                            Exc =   -44.012113220541     N = 63.999999833    
          Norm of current diis error: 0.98012E-02
          max. resid. norm for Fia-block=  1.242D-03 for orbital      1b2        
          max. resid. fock norm         =  1.245D-03 for orbital      1b2        
          Delta Eig. =     0.0382594597 eV 
 
                                              current damping :  0.100
 ITERATION  ENERGY          1e-ENERGY        2e-ENERGY     RMS[dD(SAO)]   TOL
  10  -436.43050504388    -1410.2644047     561.29358440    0.880D-04 0.211D-12
                            Exc =   -44.011715785112     N = 63.999999833    
          Norm of current diis error: 0.45366E-02
          max. resid. norm for Fia-block=  5.698D-04 for orbital      3b2        
          max. resid. fock norm         =  5.728D-04 for orbital      3b2        
 mo-orthogonalization: Cholesky decomposition
          Delta Eig. =     0.0220119977 eV 
 
                                              current damping :  0.100
 ITERATION  ENERGY          1e-ENERGY        2e-ENERGY     RMS[dD(SAO)]   TOL
  11  -436.43050821302    -1410.2647129     561.29388944    0.437D-04 0.205D-12
                            Exc =   -44.011880474537     N = 63.999999833    
          Norm of current diis error: 0.27248E-02
          max. resid. norm for Fia-block=  3.502D-04 for orbital      3b2        
          max. resid. fock norm         =  3.507D-04 for orbital      3b2        
          Delta Eig. =     0.0058382765 eV 
 
                                              current damping :  0.100
 ITERATION  ENERGY          1e-ENERGY        2e-ENERGY     RMS[dD(SAO)]   TOL
  12  -436.43050931637    -1410.2652120     561.29438736    0.223D-04 0.201D-12
                            Exc =   -44.011827792208     N = 63.999999833    
          Norm of current diis error: 0.14656E-02
          max. resid. norm for Fia-block=  2.262D-04 for orbital      3b2        
          max. resid. fock norm         =  2.263D-04 for orbital      3b2        
          Delta Eig. =     0.0015119234 eV 
 
                                              current damping :  0.100
 ITERATION  ENERGY          1e-ENERGY        2e-ENERGY     RMS[dD(SAO)]   TOL
  13  -436.43050968771    -1410.2655519     561.29472695    0.118D-04 0.199D-12
                            Exc =   -44.011833135020     N = 63.999999833    
          Norm of current diis error: 0.89191E-03
          max. resid. norm for Fia-block=  1.484D-04 for orbital      3b2        
          max. resid. fock norm         =  1.487D-04 for orbital      3b2        
          Delta Eig. =     0.0007100398 eV 
 
                                              current damping :  0.100
 ITERATION  ENERGY          1e-ENERGY        2e-ENERGY     RMS[dD(SAO)]   TOL
  14  -436.43050982632    -1410.2656294     561.29480431    0.753D-05 0.197D-12
                            Exc =   -44.011821595313     N = 63.999999833    
          Norm of current diis error: 0.51593E-03
          max. resid. norm for Fia-block=  9.329D-05 for orbital      3b2        
          max. resid. fock norm         =  9.341D-05 for orbital      3b2        
          Delta Eig. =     0.0011619383 eV 
 
                                              current damping :  0.100
 ITERATION  ENERGY          1e-ENERGY        2e-ENERGY     RMS[dD(SAO)]   TOL
  15  -436.43050987582    -1410.2656873     561.29486217    0.465D-05 0.195D-12
                            Exc =   -44.011830674670     N = 63.999999833    
          Norm of current diis error: 0.36267E-03
          max. resid. norm for Fia-block=  5.974D-05 for orbital      3b2        
          max. resid. fock norm         =  5.990D-05 for orbital      3b2        
 mo-orthogonalization: Cholesky decomposition
          Delta Eig. =     0.0011366200 eV 
 
                                              current damping :  0.100
 ITERATION  ENERGY          1e-ENERGY        2e-ENERGY     RMS[dD(SAO)]   TOL
  16  -436.43050989681    -1410.2657587     561.29493351    0.301D-05 0.194D-12
                            Exc =   -44.011818627388     N = 63.999999833    
          Norm of current diis error: 0.20224E-03
          max. resid. norm for Fia-block=  3.908D-05 for orbital      3b2        
          max. resid. fock norm         =  3.910D-05 for orbital      3b2        
          Delta Eig. =     0.0009960830 eV 
 
                                              current damping :  0.150
 ITERATION  ENERGY          1e-ENERGY        2e-ENERGY     RMS[dD(SAO)]   TOL
  17  -436.43050990449    -1410.2657451     561.29491986    0.189D-05 0.193D-12
                            Exc =   -44.011826771892     N = 63.999999833    
          Norm of current diis error: 0.13898E-03
          max. resid. norm for Fia-block=  2.411D-05 for orbital      3b2        
          max. resid. fock norm         =  2.419D-05 for orbital      3b2        
          Delta Eig. =     0.0003559978 eV 
 
                                              current damping :  0.200
 ITERATION  ENERGY          1e-ENERGY        2e-ENERGY     RMS[dD(SAO)]   TOL
  18  -436.43050990768    -1410.2657770     561.29495176    0.114D-05 0.268D-12
                            Exc =   -44.011823064807     N = 63.999999833    
          Norm of current diis error: 0.80899E-04
          max. resid. norm for Fia-block=  1.673D-05 for orbital      3b2        
          max. resid. fock norm         =  1.680D-05 for orbital      3b2        
          Delta Eig. =     0.0001218896 eV 

 ENERGY & DENSITY CONVERGED !

 
                                              current damping :  0.100
 ITERATION  ENERGY          1e-ENERGY        2e-ENERGY     RMS[dD(SAO)]   TOL
  19  -436.43050990891    -1410.2657792     561.29495402    0.732D-06 0.268D-12
                            Exc =   -44.011824241147     N = 63.999999833    
          max. resid. norm for Fia-block=  9.732D-06 for orbital      3b2        
          max. resid. fock norm         =  9.755D-06 for orbital      3b2        

 convergence criteria satisfied after 19 iterations


                  ------------------------------------------ 
                 |  total energy      =   -436.43050990891  |
                  ------------------------------------------ 
                 :  kinetic energy    =    434.43682058898  :
                 :  potential energy  =   -870.86733049789  :
                 :  virial theorem    =      1.99543182872  :
                 :  wavefunction norm =      1.00000000000  :
                  .......................................... 


 <geterg> : there is no data group $energy 


 <skperg> : $end is missing 


 orbitals $scfmo  will be written to file mos

    irrep                 12a1        13a1        14a1        15a1        16a1  
 eigenvalues H         -0.59015    -0.53407    -0.48674    -0.40779    -0.33174
            eV         -16.0588    -14.5330    -13.2451    -11.0967     -9.0273
 occupation              2.0000      2.0000      2.0000      2.0000      2.0000 

    irrep                 17a1        18a1        19a1        20a1        21a1  
 eigenvalues H          0.04214     0.08462     0.10232     0.12103     0.16161
            eV           1.1466      2.3025      2.7842      3.2935      4.3977

    irrep                  1a2         2a2         3a2         4a2         5a2  
 eigenvalues H         -0.33444    -0.29849    -0.03630     0.24043     0.31978
            eV          -9.1008     -8.1224     -0.9877      6.5426      8.7018
 occupation              2.0000      2.0000 

    irrep                  6a2         7a2         8a2         9a2        10a2  
 eigenvalues H          0.51514     0.63271     0.71894     0.79885     0.99321
            eV          14.0178     17.2171     19.5635     21.7380     27.0269

    irrep                  7b1         8b1         9b1        10b1        11b1  
 eigenvalues H         -0.53997    -0.49533    -0.46814    -0.38879    -0.31691
            eV         -14.6935    -13.4788    -12.7389    -10.5796     -8.6236
 occupation              2.0000      2.0000      2.0000      2.0000      2.0000 

    irrep                 12b1        13b1        14b1        15b1        16b1  
 eigenvalues H          0.07725     0.11918     0.19651     0.21874     0.23280
            eV           2.1022      3.2432      5.3472      5.9522      6.3349

    irrep                  1b2         2b2         3b2         4b2         5b2  
 eigenvalues H         -0.55934    -0.41680    -0.30293    -0.09386    -0.00614
            eV         -15.2206    -11.3417     -8.2431     -2.5542     -0.1671
 occupation              2.0000      2.0000      2.0000 

    irrep                  6b2         7b2         8b2         9b2        10b2  
 eigenvalues H          0.13284     0.19778     0.24530     0.32453     0.38317
            eV           3.6148      5.3820      6.6751      8.8311     10.4267
 
 
 
 
 ==============================================================================
                           electrostatic moments
 ==============================================================================

 reference point for electrostatic moments:    0.00000   0.00000   0.00000

 
              nuc           elec       ->  total
 ------------------------------------------------------------------------------
                          charge      
 ------------------------------------------------------------------------------
          64.000000     -64.000000      -0.000000
 
 ------------------------------------------------------------------------------
                       dipole moment  
 ------------------------------------------------------------------------------
   x       0.000000      -0.000000      -0.000000
   y       0.000000       0.000000       0.000000
   z      73.643051     -75.472623      -1.829572
 
   | dipole moment | =     1.8296 a.u. =     4.6503 debye 
 
 ------------------------------------------------------------------------------
                     quadrupole moment
 ------------------------------------------------------------------------------
  xx     258.673356    -293.817853     -35.144497
  yy       0.000000     -39.256102     -39.256102
  zz     831.374104    -876.118819     -44.744715
  xy       0.000000       0.000000       0.000000
  xz       0.000000       0.000000       0.000000
  yz       0.000000       0.000000       0.000000
 
     1/3  trace=     -39.715104
     anisotropy=       8.342492
 
 ==============================================================================
 
 


    ------------------------------------------------------------------------
         total  cpu-time :  4 minutes and 21 seconds
         total wall-time :  4 minutes and 23 seconds
    ------------------------------------------------------------------------


   ****  dscf : all done  ****


    2024-02-12 11:54:57.250 

