
 *******************************************************************************
 DBCSR| CPU Multiplication driver                                           XSMM (U)
 DBCSR| Multrec recursion limit                                              512 (U)
 DBCSR| Multiplication stack size                                           1000 (D)
 DBCSR| Maximum elements for images                                    UNLIMITED (U)
 DBCSR| Multiplicative factor virtual images                                   1 (U)
 DBCSR| Use multiplication densification                                       T (D)
 DBCSR| Multiplication size stacks                                             3 (U)
 DBCSR| Use memory pool for CPU allocation                                     F (U)
 DBCSR| Number of 3D layers                                               SINGLE (U)
 DBCSR| Use MPI memory allocation                                              F (U)
 DBCSR| Use RMA algorithm                                                      F (U)
 DBCSR| Use Communication thread                                               T (U)
 DBCSR| Communication thread load                                             87 (D)
 DBCSR| MPI: My process id                                                     0
 DBCSR| MPI: Number of processes                                             128
 DBCSR| OMP: Current number of threads                                         1
 DBCSR| OMP: Max number of threads                                             1
 DBCSR| Split modifier for TAS multiplication algorithm                  1.0E+00 (U)


  **** **** ******  **  PROGRAM STARTED AT               2024-02-05 09:36:19.075
 ***** ** ***  *** **   PROGRAM STARTED ON                           nesh-clk562
 **    ****   ******    PROGRAM STARTED BY                              suphc355
 ***** **    ** ** **   PROGRAM PROCESS ID                               3973926
  **** **  *******  **  PROGRAM STARTED IN /gxfs_work/cau/suphc355/homologes/X2/
                                           AE/Cl

 CP2K| version string:                 CP2K version 2024.1 (Development Version)
 CP2K| source code revision number:                                  git:b6f9133
 CP2K| cp2kflags: omp libint fftw3 libxc libgrpp parallel mpi_f08 scalapack cosm
 CP2K|            a xsmm spglib mkl
 CP2K| is freely available from                            https://www.cp2k.org/
 CP2K| Program compiled at                          Fr 26. Jan 09:14:30 CET 2024
 CP2K| Program compiled on                                           nesh-login3
 CP2K| Program compiled for                                                local
 CP2K| Data directory path            /gxfs_home/cau/suphc355/software/cp2k/data
 CP2K| Input file name                                                AE_aug.inp
 
 GLOBAL| Force Environment number                                              1
 GLOBAL| Basis set file name                                  ../../../basis_aug
 GLOBAL| Potential file name                                           POTENTIAL
 GLOBAL| MM Potential file name                                     MM_POTENTIAL
 GLOBAL| Coordinate file name                                            opt.xyz
 GLOBAL| Method name                                                        CP2K
 GLOBAL| Project name                                                 Cl2_AE_aug
 GLOBAL| Run type                                                         ENERGY
 GLOBAL| FFT library                                                       FFTW3
 GLOBAL| Diagonalization library                                       ScaLAPACK
 GLOBAL| DGEMM library                                                      BLAS
 GLOBAL| Orthonormality check for eigenvectors                          DISABLED
 GLOBAL| Matrix multiplication library                                     COSMA
 GLOBAL| All-to-all communication in single precision                          F
 GLOBAL| FFTs using library dependent lengths                                  F
 GLOBAL| Grid backend                                                       AUTO
 GLOBAL| Global print level                                               MEDIUM
 GLOBAL| MPI I/O enabled                                                       T
 GLOBAL| Total number of message passing processes                           128
 GLOBAL| Number of threads for this process                                    1
 GLOBAL| This output is from process                                           0
 GLOBAL| Stack size for threads created by OpenMP (OMP_STACKSIZE)        default
 GLOBAL| CPU model name                Intel(R) Xeon(R) Gold 6226R CPU @ 2.90GHz
 GLOBAL| CPUID                                                              1003

 MEMORY| system memory details [Kb]
 MEMORY|                        rank 0           min           max       average
 MEMORY| MemTotal            196683224     196683224     196683224     196683224
 MEMORY| MemFree             177217268     177217268     177529264     177339026
 MEMORY| Buffers                243308        227872        297772        259760
 MEMORY| Cached                 546172        469584        546172        506027
 MEMORY| Slab                   532264        516832        554228        535888
 MEMORY| SReclaimable           124280        110032        124280        117462
 MEMORY| MemLikelyFree       178131028     178131028     178342668     178222275


 *** Fundamental physical constants (SI units) ***

 *** Literature: B. J. Mohr and B. N. Taylor,
 ***             CODATA recommended values of the fundamental physical
 ***             constants: 2006, Web Version 5.1
 ***             http://physics.nist.gov/constants

 Speed of light in vacuum [m/s]                             2.99792458000000E+08
 Magnetic constant or permeability of vacuum [N/A**2]       1.25663706143592E-06
 Electric constant or permittivity of vacuum [F/m]          8.85418781762039E-12
 Planck constant (h) [J*s]                                  6.62606896000000E-34
 Planck constant (h-bar) [J*s]                              1.05457162825177E-34
 Elementary charge [C]                                      1.60217648700000E-19
 Electron mass [kg]                                         9.10938215000000E-31
 Electron g factor [ ]                                     -2.00231930436220E+00
 Proton mass [kg]                                           1.67262163700000E-27
 Fine-structure constant                                    7.29735253760000E-03
 Rydberg constant [1/m]                                     1.09737315685270E+07
 Avogadro constant [1/mol]                                  6.02214179000000E+23
 Boltzmann constant [J/K]                                   1.38065040000000E-23
 Atomic mass unit [kg]                                      1.66053878200000E-27
 Bohr radius [m]                                            5.29177208590000E-11

 *** Conversion factors ***

 [u] -> [a.u.]                                              1.82288848426455E+03
 [Angstrom] -> [Bohr] = [a.u.]                              1.88972613288564E+00
 [a.u.] = [Bohr] -> [Angstrom]                              5.29177208590000E-01
 [a.u.] -> [s]                                              2.41888432650478E-17
 [a.u.] -> [fs]                                             2.41888432650478E-02
 [a.u.] -> [J]                                              4.35974393937059E-18
 [a.u.] -> [N]                                              8.23872205491840E-08
 [a.u.] -> [K]                                              3.15774647902944E+05
 [a.u.] -> [kJ/mol]                                         2.62549961709828E+03
 [a.u.] -> [kcal/mol]                                       6.27509468713739E+02
 [a.u.] -> [Pa]                                             2.94210107994716E+13
 [a.u.] -> [bar]                                            2.94210107994716E+08
 [a.u.] -> [atm]                                            2.90362800883016E+08
 [a.u.] -> [eV]                                             2.72113838565563E+01
 [a.u.] -> [Hz]                                             6.57968392072181E+15
 [a.u.] -> [1/cm] (wave numbers)                            2.19474631370540E+05
 [a.u./Bohr**2] -> [1/cm]                                   5.14048714338585E+03
 

 CELL_TOP| Volume [angstrom^3]:                                      8000.000000
 CELL_TOP| Vector a [angstrom    20.000     0.000     0.000   |a| =    20.000000
 CELL_TOP| Vector b [angstrom     0.000    20.000     0.000   |b| =    20.000000
 CELL_TOP| Vector c [angstrom     0.000     0.000    20.000   |c| =    20.000000
 CELL_TOP| Angle (b,c), alpha [degree]:                                90.000000
 CELL_TOP| Angle (a,c), beta  [degree]:                                90.000000
 CELL_TOP| Angle (a,b), gamma [degree]:                                90.000000
 CELL_TOP| Numerically orthorhombic:                                         YES
 CELL_TOP| Periodicity                                                      NONE
 
 GENERATE|  Preliminary Number of Bonds generated:                             0
 GENERATE|  Achieved consistency in connectivity generation.

 CELL| Volume [angstrom^3]:                                          8000.000000
 CELL| Vector a [angstrom]:      20.000     0.000     0.000   |a| =    20.000000
 CELL| Vector b [angstrom]:       0.000    20.000     0.000   |b| =    20.000000
 CELL| Vector c [angstrom]:       0.000     0.000    20.000   |c| =    20.000000
 CELL| Angle (b,c), alpha [degree]:                                    90.000000
 CELL| Angle (a,c), beta  [degree]:                                    90.000000
 CELL| Angle (a,b), gamma [degree]:                                    90.000000
 CELL| Numerically orthorhombic:                                             YES
 CELL| Periodicity                                                          NONE

 CELL_REF| Volume [angstrom^3]:                                      8000.000000
 CELL_REF| Vector a [angstrom    20.000     0.000     0.000   |a| =    20.000000
 CELL_REF| Vector b [angstrom     0.000    20.000     0.000   |b| =    20.000000
 CELL_REF| Vector c [angstrom     0.000     0.000    20.000   |c| =    20.000000
 CELL_REF| Angle (b,c), alpha [degree]:                                90.000000
 CELL_REF| Angle (a,c), beta  [degree]:                                90.000000
 CELL_REF| Angle (a,b), gamma [degree]:                                90.000000
 CELL_REF| Numerically orthorhombic:                                         YES
 CELL_REF| Periodicity                                                      NONE

 *******************************************************************************
 *******************************************************************************
 **                                                                           **
 **     #####                         ##              ##                      **
 **    ##   ##            ##          ##              ##                      **
 **   ##     ##                       ##            ######                    **
 **   ##     ##  ##   ##  ##   #####  ##  ##   ####   ##    #####    #####    **
 **   ##     ##  ##   ##  ##  ##      ## ##   ##      ##   ##   ##  ##   ##   **
 **   ##  ## ##  ##   ##  ##  ##      ####     ###    ##   ######   ######    **
 **    ##  ###   ##   ##  ##  ##      ## ##      ##   ##   ##       ##        **
 **     #######   #####   ##   #####  ##  ##  ####    ##    #####   ##        **
 **           ##                                                    ##        **
 **                                                                           **
 **                                                ... make the atoms dance   **
 **                                                                           **
 **            Copyright (C) by CP2K developers group (2000-2024)             **
 **                      J. Chem. Phys. 152, 194103 (2020)                    **
 **                                                                           **
 *******************************************************************************

 DFT| Spin restricted Kohn-Sham (RKS) calculation                            RKS
 DFT| Multiplicity                                                             1
 DFT| Number of spin states                                                    1
 DFT| Charge                                                                   0
 DFT| Self-interaction correction (SIC)                                       NO
 DFT| Cutoffs: density                                              1.000000E-10
 DFT|          gradient                                             1.000000E-10
 DFT|          tau                                                  1.000000E-10
 DFT|          cutoff_smoothing_range                               0.000000E+00
 DFT| XC density smoothing                                                  NONE
 DFT| XC derivatives                                                          PW

 FUNCTIONAL| PBE:
 FUNCTIONAL| J.P.Perdew, K.Burke, M.Ernzerhof, Phys. Rev. Letter, vol. 77, n 18,
 FUNCTIONAL|  pp. 3865-3868, (1996)sx=0.750sc=1.000{spin unpolarized}           


 QS| Method:                                                                GAPW
 QS| Density plane wave grid type                        NON-SPHERICAL FULLSPACE
 QS| Number of grid levels:                                                    5
 QS| Density cutoff [a.u.]:                                                600.0
 QS| Multi grid cutoff [a.u.]: 1) grid level                               600.0
 QS|                           2) grid level                               200.0
 QS|                           3) grid level                                66.7
 QS|                           4) grid level                                22.2
 QS|                           5) grid level                                 7.4
 QS| Grid level progression factor:                                          3.0
 QS| Relative density cutoff [a.u.]:                                        40.0
 QS| Interaction thresholds: eps_pgf_orb:                                1.0E-30
 QS|                         eps_filter_matrix:                          0.0E+00
 QS|                         eps_core_charge:                            1.0E-17
 QS|                         eps_rho_gspace:                             1.0E-15
 QS|                         eps_rho_rspace:                             1.0E-15
 QS|                         eps_gvg_rspace:                             3.2E-08
 QS|                         eps_ppl:                                    1.0E-02
 QS|                         eps_ppnl:                                   3.2E-10
 QS| GAPW|      One center basis from orbital basis primitives
 QS| GAPW|                   eps_fit:                                    1.0E-04
 QS| GAPW|                   eps_iso:                                    1.0E-12
 QS| GAPW|                   eps_svd:                                    1.0E-08
 QS| GAPW|                   eps_cpc:                                    1.0E-15
 QS| GAPW|   atom-r-grid: quadrature:                                     GC_LOG
 QS| GAPW|      atom-s-grid:  max l :                                          8
 QS| GAPW|      max_l_rho0 :                                                   2


 ATOMIC KIND INFORMATION

  1. Atomic kind: Cl                                    Number of atoms:       2

     Orbital Basis Set                                               aug-cc-pVQZ

       Number of orbital shell sets:                                          10
       Number of orbital shells:                                              22
       Number of primitive Cartesian functions:                               38
       Number of Cartesian basis functions:                                  109
       Number of spherical basis functions:                                   84
       Norm type:                                                              2

       Normalised Cartesian orbitals:

                        Set   Shell   Orbital            Exponent    Coefficient

                          1       1    1s           834900.000000       0.456078
                                                    125000.000000       0.853565
                                                     28430.000000       1.478942
                                                      8033.000000       2.419799
                                                      2608.000000       3.761804
                                                       933.900000       5.497407
                                                       360.000000       7.259669
                                                       147.000000       7.954421
                                                        62.880000       6.095099
                                                        27.600000       2.325174
                                                        11.080000       0.204037
                                                         5.075000      -0.008959
                                                         2.278000       0.002896
                                                         0.777500      -0.000502
                                                         0.352700       0.000139
                                                         0.143100      -0.000020

                          1       2    2s           834900.000000      -0.127884
                                                    125000.000000      -0.239218
                                                     28430.000000      -0.415249
                                                      8033.000000      -0.680326
                                                      2608.000000      -1.067703
                                                       933.900000      -1.589156
                                                       360.000000      -2.210874
                                                       147.000000      -2.699624
                                                        62.880000      -2.668408
                                                        27.600000      -1.499827
                                                        11.080000       0.497358
                                                         5.075000       1.358225
                                                         2.278000       0.583593
                                                         0.777500       0.025180
                                                         0.352700      -0.002176
                                                         0.143100       0.000316

                          1       3    3s           834900.000000       0.000000
                                                    125000.000000       0.000000
                                                     28430.000000       0.000000
                                                      8033.000000       0.000000
                                                      2608.000000       0.000000
                                                       933.900000       0.000000
                                                       360.000000       0.000000
                                                       147.000000       0.000000
                                                        62.880000       0.000000
                                                        27.600000       0.000000
                                                        11.080000       0.000000
                                                         5.075000       0.000000
                                                         2.278000       0.000000
                                                         0.777500       0.590113
                                                         0.352700       0.000000
                                                         0.143100       0.000000

                          1       4    4s           834900.000000       0.000000
                                                    125000.000000       0.000000
                                                     28430.000000       0.000000
                                                      8033.000000       0.000000
                                                      2608.000000       0.000000
                                                       933.900000       0.000000
                                                       360.000000       0.000000
                                                       147.000000       0.000000
                                                        62.880000       0.000000
                                                        27.600000       0.000000
                                                        11.080000       0.000000
                                                         5.075000       0.000000
                                                         2.278000       0.000000
                                                         0.777500       0.000000
                                                         0.352700       0.326185
                                                         0.143100       0.000000

                          1       5    5s           834900.000000       0.038710
                                                    125000.000000       0.072311
                                                     28430.000000       0.125784
                                                      8033.000000       0.205587
                                                      2608.000000       0.323957
                                                       933.900000       0.481142
                                                       360.000000       0.675917
                                                       147.000000       0.828945
                                                        62.880000       0.848113
                                                        27.600000       0.490247
                                                        11.080000      -0.171054
                                                         5.075000      -0.637022
                                                         2.278000      -0.461597
                                                         0.777500       0.159136
                                                         0.352700       0.220525
                                                         0.143100       0.047206

                          1       6    6s           834900.000000       0.000000
                                                    125000.000000       0.000000
                                                     28430.000000       0.000000
                                                      8033.000000       0.000000
                                                      2608.000000       0.000000
                                                       933.900000       0.000000
                                                       360.000000       0.000000
                                                       147.000000       0.000000
                                                        62.880000       0.000000
                                                        27.600000       0.000000
                                                        11.080000       0.000000
                                                         5.075000       0.000000
                                                         2.278000       0.000000
                                                         0.777500       0.000000
                                                         0.352700       0.000000
                                                         0.143100       0.165821

                          2       1    1s                0.051900       0.077497

                          3       1    1px            1703.000000       7.392180
                                                       403.600000      10.479622
                                                       130.300000      13.388240
                                                        49.050000      14.702578
                                                        20.260000      12.800709
                                                         8.787000       7.869884
                                                         3.919000       2.921669
                                                         1.765000       0.424220
                                                         0.720700       0.010214
                                                         0.283900       0.000346
                                                         0.106000       0.000029
                          3       1    1py            1703.000000       7.392180
                                                       403.600000      10.479622
                                                       130.300000      13.388240
                                                        49.050000      14.702578
                                                        20.260000      12.800709
                                                         8.787000       7.869884
                                                         3.919000       2.921669
                                                         1.765000       0.424220
                                                         0.720700       0.010214
                                                         0.283900       0.000346
                                                         0.106000       0.000029
                          3       1    1pz            1703.000000       7.392180
                                                       403.600000      10.479622
                                                       130.300000      13.388240
                                                        49.050000      14.702578
                                                        20.260000      12.800709
                                                         8.787000       7.869884
                                                         3.919000       2.921669
                                                         1.765000       0.424220
                                                         0.720700       0.010214
                                                         0.283900       0.000346
                                                         0.106000       0.000029

                          3       2    2px            1703.000000       0.000000
                                                       403.600000       0.000000
                                                       130.300000       0.000000
                                                        49.050000       0.000000
                                                        20.260000       0.000000
                                                         8.787000       0.000000
                                                         3.919000       0.000000
                                                         1.765000       0.000000
                                                         0.720700       0.946528
                                                         0.283900       0.000000
                                                         0.106000       0.000000
                          3       2    2py            1703.000000       0.000000
                                                       403.600000       0.000000
                                                       130.300000       0.000000
                                                        49.050000       0.000000
                                                        20.260000       0.000000
                                                         8.787000       0.000000
                                                         3.919000       0.000000
                                                         1.765000       0.000000
                                                         0.720700       0.946528
                                                         0.283900       0.000000
                                                         0.106000       0.000000
                          3       2    2pz            1703.000000       0.000000
                                                       403.600000       0.000000
                                                       130.300000       0.000000
                                                        49.050000       0.000000
                                                        20.260000       0.000000
                                                         8.787000       0.000000
                                                         3.919000       0.000000
                                                         1.765000       0.000000
                                                         0.720700       0.946528
                                                         0.283900       0.000000
                                                         0.106000       0.000000

                          3       3    3px            1703.000000      -2.000184
                                                       403.600000      -2.819822
                                                       130.300000      -3.661076
                                                        49.050000      -4.056901
                                                        20.260000      -3.684614
                                                         8.787000      -2.305879
                                                         3.919000      -0.962459
                                                         1.765000       0.111243
                                                         0.720700       0.364655
                                                         0.283900       0.149841
                                                         0.106000       0.019589
                          3       3    3py            1703.000000      -2.000184
                                                       403.600000      -2.819822
                                                       130.300000      -3.661076
                                                        49.050000      -4.056901
                                                        20.260000      -3.684614
                                                         8.787000      -2.305879
                                                         3.919000      -0.962459
                                                         1.765000       0.111243
                                                         0.720700       0.364655
                                                         0.283900       0.149841
                                                         0.106000       0.019589
                          3       3    3pz            1703.000000      -2.000184
                                                       403.600000      -2.819822
                                                       130.300000      -3.661076
                                                        49.050000      -4.056901
                                                        20.260000      -3.684614
                                                         8.787000      -2.305879
                                                         3.919000      -0.962459
                                                         1.765000       0.111243
                                                         0.720700       0.364655
                                                         0.283900       0.149841
                                                         0.106000       0.019589

                          3       4    4px            1703.000000       0.000000
                                                       403.600000       0.000000
                                                       130.300000       0.000000
                                                        49.050000       0.000000
                                                        20.260000       0.000000
                                                         8.787000       0.000000
                                                         3.919000       0.000000
                                                         1.765000       0.000000
                                                         0.720700       0.000000
                                                         0.283900       0.295391
                                                         0.106000       0.000000
                          3       4    4py            1703.000000       0.000000
                                                       403.600000       0.000000
                                                       130.300000       0.000000
                                                        49.050000       0.000000
                                                        20.260000       0.000000
                                                         8.787000       0.000000
                                                         3.919000       0.000000
                                                         1.765000       0.000000
                                                         0.720700       0.000000
                                                         0.283900       0.295391
                                                         0.106000       0.000000
                          3       4    4pz            1703.000000       0.000000
                                                       403.600000       0.000000
                                                       130.300000       0.000000
                                                        49.050000       0.000000
                                                        20.260000       0.000000
                                                         8.787000       0.000000
                                                         3.919000       0.000000
                                                         1.765000       0.000000
                                                         0.720700       0.000000
                                                         0.283900       0.295391
                                                         0.106000       0.000000

                          3       5    5px            1703.000000       0.000000
                                                       403.600000       0.000000
                                                       130.300000       0.000000
                                                        49.050000       0.000000
                                                        20.260000       0.000000
                                                         8.787000       0.000000
                                                         3.919000       0.000000
                                                         1.765000       0.000000
                                                         0.720700       0.000000
                                                         0.283900       0.000000
                                                         0.106000       0.086213
                          3       5    5py            1703.000000       0.000000
                                                       403.600000       0.000000
                                                       130.300000       0.000000
                                                        49.050000       0.000000
                                                        20.260000       0.000000
                                                         8.787000       0.000000
                                                         3.919000       0.000000
                                                         1.765000       0.000000
                                                         0.720700       0.000000
                                                         0.283900       0.000000
                                                         0.106000       0.086213
                          3       5    5pz            1703.000000       0.000000
                                                       403.600000       0.000000
                                                       130.300000       0.000000
                                                        49.050000       0.000000
                                                        20.260000       0.000000
                                                         8.787000       0.000000
                                                         3.919000       0.000000
                                                         1.765000       0.000000
                                                         0.720700       0.000000
                                                         0.283900       0.000000
                                                         0.106000       0.086213

                          4       1    1px               0.037600       0.023601
                          4       1    1py               0.037600       0.023601
                          4       1    1pz               0.037600       0.023601

                          5       1    1dx2              1.551000       3.547971
                                                         0.628000       0.000000
                                                         0.254000       0.000000
                          5       1    1dxy              1.551000       6.145267
                                                         0.628000       0.000000
                                                         0.254000       0.000000
                          5       1    1dxz              1.551000       6.145267
                                                         0.628000       0.000000
                                                         0.254000       0.000000
                          5       1    1dy2              1.551000       3.547971
                                                         0.628000       0.000000
                                                         0.254000       0.000000
                          5       1    1dyz              1.551000       6.145267
                                                         0.628000       0.000000
                                                         0.254000       0.000000
                          5       1    1dz2              1.551000       3.547971
                                                         0.628000       0.000000
                                                         0.254000       0.000000

                          5       2    2dx2              1.551000       0.000000
                                                         0.628000       0.729187
                                                         0.254000       0.000000
                          5       2    2dxy              1.551000       0.000000
                                                         0.628000       1.262989
                                                         0.254000       0.000000
                          5       2    2dxz              1.551000       0.000000
                                                         0.628000       1.262989
                                                         0.254000       0.000000
                          5       2    2dy2              1.551000       0.000000
                                                         0.628000       0.729187
                                                         0.254000       0.000000
                          5       2    2dyz              1.551000       0.000000
                                                         0.628000       1.262989
                                                         0.254000       0.000000
                          5       2    2dz2              1.551000       0.000000
                                                         0.628000       0.729187
                                                         0.254000       0.000000

                          5       3    3dx2              1.551000       0.000000
                                                         0.628000       0.000000
                                                         0.254000       0.149578
                          5       3    3dxy              1.551000       0.000000
                                                         0.628000       0.000000
                                                         0.254000       0.259077
                          5       3    3dxz              1.551000       0.000000
                                                         0.628000       0.000000
                                                         0.254000       0.259077
                          5       3    3dy2              1.551000       0.000000
                                                         0.628000       0.000000
                                                         0.254000       0.149578
                          5       3    3dyz              1.551000       0.000000
                                                         0.628000       0.000000
                                                         0.254000       0.259077
                          5       3    3dz2              1.551000       0.000000
                                                         0.628000       0.000000
                                                         0.254000       0.149578

                          6       1    1dx2              0.095200       0.026855
                          6       1    1dxy              0.095200       0.046514
                          6       1    1dxz              0.095200       0.046514
                          6       1    1dy2              0.095200       0.026855
                          6       1    1dyz              0.095200       0.046514
                          6       1    1dz2              0.095200       0.026855

                          7       1    1fx3              1.089000       1.783476
                                                         0.423000       0.000000
                          7       1    1fx2y             1.089000       3.987973
                                                         0.423000       0.000000
                          7       1    1fx2z             1.089000       3.987973
                                                         0.423000       0.000000
                          7       1    1fxy2             1.089000       3.987973
                                                         0.423000       0.000000
                          7       1    1fxyz             1.089000       6.907371
                                                         0.423000       0.000000
                          7       1    1fxz2             1.089000       3.987973
                                                         0.423000       0.000000
                          7       1    1fy3              1.089000       1.783476
                                                         0.423000       0.000000
                          7       1    1fy2z             1.089000       3.987973
                                                         0.423000       0.000000
                          7       1    1fyz2             1.089000       3.987973
                                                         0.423000       0.000000
                          7       1    1fz3              1.089000       1.783476
                                                         0.423000       0.000000

                          7       2    2fx3              1.089000       0.000000
                                                         0.423000       0.212432
                          7       2    2fx2y             1.089000       0.000000
                                                         0.423000       0.475013
                          7       2    2fx2z             1.089000       0.000000
                                                         0.423000       0.475013
                          7       2    2fxy2             1.089000       0.000000
                                                         0.423000       0.475013
                          7       2    2fxyz             1.089000       0.000000
                                                         0.423000       0.822746
                          7       2    2fxz2             1.089000       0.000000
                                                         0.423000       0.475013
                          7       2    2fy3              1.089000       0.000000
                                                         0.423000       0.212432
                          7       2    2fy2z             1.089000       0.000000
                                                         0.423000       0.475013
                          7       2    2fyz2             1.089000       0.000000
                                                         0.423000       0.475013
                          7       2    2fz3              1.089000       0.000000
                                                         0.423000       0.212432

                          8       1    1fx3              0.217000       0.047314
                          8       1    1fx2y             0.217000       0.105797
                          8       1    1fx2z             0.217000       0.105797
                          8       1    1fxy2             0.217000       0.105797
                          8       1    1fxyz             0.217000       0.183246
                          8       1    1fxz2             0.217000       0.105797
                          8       1    1fy3              0.217000       0.047314
                          8       1    1fy2z             0.217000       0.105797
                          8       1    1fyz2             0.217000       0.105797
                          8       1    1fz3              0.217000       0.047314

                          9       1    1gx4              0.827000       0.660048
                          9       1    1gx3y             0.827000       1.746323
                          9       1    1gx3z             0.827000       1.746323
                          9       1    1gx2y2            0.827000       2.254493
                          9       1    1gx2yz            0.827000       3.904897
                          9       1    1gx2z2            0.827000       2.254493
                          9       1    1gxy3             0.827000       1.746323
                          9       1    1gxy2z            0.827000       3.904897
                          9       1    1gxyz2            0.827000       3.904897
                          9       1    1gxz3             0.827000       1.746323
                          9       1    1gy4              0.827000       0.660048
                          9       1    1gy3z             0.827000       1.746323
                          9       1    1gy2z2            0.827000       2.254493
                          9       1    1gyz3             0.827000       1.746323
                          9       1    1gz4              0.827000       0.660048

                         10       1    1gx4              0.378000       0.076655
                         10       1    1gx3y             0.378000       0.202809
                         10       1    1gx3z             0.378000       0.202809
                         10       1    1gx2y2            0.378000       0.261825
                         10       1    1gx2yz            0.378000       0.453494
                         10       1    1gx2z2            0.378000       0.261825
                         10       1    1gxy3             0.378000       0.202809
                         10       1    1gxy2z            0.378000       0.453494
                         10       1    1gxyz2            0.378000       0.453494
                         10       1    1gxz3             0.378000       0.202809
                         10       1    1gy4              0.378000       0.076655
                         10       1    1gy3z             0.378000       0.202809
                         10       1    1gy2z2            0.378000       0.261825
                         10       1    1gyz3             0.378000       0.202809
                         10       1    1gz4              0.378000       0.076655

       Atomic covalent radius [Angstrom]:                                  0.990

       Atomic van der Waals radius [Angstrom]:                             1.750

     The atoms of this atomic kind are PAW atoms (GAPW):
       Hard Gaussian function radius:                                      1.512
       Rho0 radius:                                                        1.512
       Maximum GTO radius used for PAW projector construction:            24.566

     GAPW Soft Basis Set                                        aug-cc-pVQZ_soft

       Number of orbital shell sets:                                          10
       Number of orbital shells:                                              22
       Number of primitive Cartesian functions:                               20
       Number of Cartesian basis functions:                                  109
       Number of spherical basis functions:                                   84
       Norm type:                                                              2

       Normalised Cartesian orbitals:

                        Set   Shell   Orbital            Exponent    Coefficient

                          1       1    1s                2.278000       0.002896
                                                         0.777500      -0.000502
                                                         0.352700       0.000139
                                                         0.143100      -0.000020

                          1       2    2s                2.278000       0.583593
                                                         0.777500       0.025180
                                                         0.352700      -0.002176
                                                         0.143100       0.000316

                          1       3    3s                2.278000       0.000000
                                                         0.777500       0.590113
                                                         0.352700       0.000000
                                                         0.143100       0.000000

                          1       4    4s                2.278000       0.000000
                                                         0.777500       0.000000
                                                         0.352700       0.326185
                                                         0.143100       0.000000

                          1       5    5s                2.278000      -0.461597
                                                         0.777500       0.159136
                                                         0.352700       0.220525
                                                         0.143100       0.047206

                          1       6    6s                2.278000       0.000000
                                                         0.777500       0.000000
                                                         0.352700       0.000000
                                                         0.143100       0.165821

                          2       1    1s                0.051900       0.077497

                          3       1    1px               3.919000       2.921669
                                                         1.765000       0.424220
                                                         0.720700       0.010214
                                                         0.283900       0.000346
                                                         0.106000       0.000029
                          3       1    1py               3.919000       2.921669
                                                         1.765000       0.424220
                                                         0.720700       0.010214
                                                         0.283900       0.000346
                                                         0.106000       0.000029
                          3       1    1pz               3.919000       2.921669
                                                         1.765000       0.424220
                                                         0.720700       0.010214
                                                         0.283900       0.000346
                                                         0.106000       0.000029

                          3       2    2px               3.919000       0.000000
                                                         1.765000       0.000000
                                                         0.720700       0.946528
                                                         0.283900       0.000000
                                                         0.106000       0.000000
                          3       2    2py               3.919000       0.000000
                                                         1.765000       0.000000
                                                         0.720700       0.946528
                                                         0.283900       0.000000
                                                         0.106000       0.000000
                          3       2    2pz               3.919000       0.000000
                                                         1.765000       0.000000
                                                         0.720700       0.946528
                                                         0.283900       0.000000
                                                         0.106000       0.000000

                          3       3    3px               3.919000      -0.962459
                                                         1.765000       0.111243
                                                         0.720700       0.364655
                                                         0.283900       0.149841
                                                         0.106000       0.019589
                          3       3    3py               3.919000      -0.962459
                                                         1.765000       0.111243
                                                         0.720700       0.364655
                                                         0.283900       0.149841
                                                         0.106000       0.019589
                          3       3    3pz               3.919000      -0.962459
                                                         1.765000       0.111243
                                                         0.720700       0.364655
                                                         0.283900       0.149841
                                                         0.106000       0.019589

                          3       4    4px               3.919000       0.000000
                                                         1.765000       0.000000
                                                         0.720700       0.000000
                                                         0.283900       0.295391
                                                         0.106000       0.000000
                          3       4    4py               3.919000       0.000000
                                                         1.765000       0.000000
                                                         0.720700       0.000000
                                                         0.283900       0.295391
                                                         0.106000       0.000000
                          3       4    4pz               3.919000       0.000000
                                                         1.765000       0.000000
                                                         0.720700       0.000000
                                                         0.283900       0.295391
                                                         0.106000       0.000000

                          3       5    5px               3.919000       0.000000
                                                         1.765000       0.000000
                                                         0.720700       0.000000
                                                         0.283900       0.000000
                                                         0.106000       0.086213
                          3       5    5py               3.919000       0.000000
                                                         1.765000       0.000000
                                                         0.720700       0.000000
                                                         0.283900       0.000000
                                                         0.106000       0.086213
                          3       5    5pz               3.919000       0.000000
                                                         1.765000       0.000000
                                                         0.720700       0.000000
                                                         0.283900       0.000000
                                                         0.106000       0.086213

                          4       1    1px               0.037600       0.023601
                          4       1    1py               0.037600       0.023601
                          4       1    1pz               0.037600       0.023601

                          5       1    1dx2              1.551000       3.547971
                                                         0.628000       0.000000
                                                         0.254000       0.000000
                          5       1    1dxy              1.551000       6.145267
                                                         0.628000       0.000000
                                                         0.254000       0.000000
                          5       1    1dxz              1.551000       6.145267
                                                         0.628000       0.000000
                                                         0.254000       0.000000
                          5       1    1dy2              1.551000       3.547971
                                                         0.628000       0.000000
                                                         0.254000       0.000000
                          5       1    1dyz              1.551000       6.145267
                                                         0.628000       0.000000
                                                         0.254000       0.000000
                          5       1    1dz2              1.551000       3.547971
                                                         0.628000       0.000000
                                                         0.254000       0.000000

                          5       2    2dx2              1.551000       0.000000
                                                         0.628000       0.729187
                                                         0.254000       0.000000
                          5       2    2dxy              1.551000       0.000000
                                                         0.628000       1.262989
                                                         0.254000       0.000000
                          5       2    2dxz              1.551000       0.000000
                                                         0.628000       1.262989
                                                         0.254000       0.000000
                          5       2    2dy2              1.551000       0.000000
                                                         0.628000       0.729187
                                                         0.254000       0.000000
                          5       2    2dyz              1.551000       0.000000
                                                         0.628000       1.262989
                                                         0.254000       0.000000
                          5       2    2dz2              1.551000       0.000000
                                                         0.628000       0.729187
                                                         0.254000       0.000000

                          5       3    3dx2              1.551000       0.000000
                                                         0.628000       0.000000
                                                         0.254000       0.149578
                          5       3    3dxy              1.551000       0.000000
                                                         0.628000       0.000000
                                                         0.254000       0.259077
                          5       3    3dxz              1.551000       0.000000
                                                         0.628000       0.000000
                                                         0.254000       0.259077
                          5       3    3dy2              1.551000       0.000000
                                                         0.628000       0.000000
                                                         0.254000       0.149578
                          5       3    3dyz              1.551000       0.000000
                                                         0.628000       0.000000
                                                         0.254000       0.259077
                          5       3    3dz2              1.551000       0.000000
                                                         0.628000       0.000000
                                                         0.254000       0.149578

                          6       1    1dx2              0.095200       0.026855
                          6       1    1dxy              0.095200       0.046514
                          6       1    1dxz              0.095200       0.046514
                          6       1    1dy2              0.095200       0.026855
                          6       1    1dyz              0.095200       0.046514
                          6       1    1dz2              0.095200       0.026855

                          7       1    1fx3              1.089000       1.783476
                                                         0.423000       0.000000
                          7       1    1fx2y             1.089000       3.987973
                                                         0.423000       0.000000
                          7       1    1fx2z             1.089000       3.987973
                                                         0.423000       0.000000
                          7       1    1fxy2             1.089000       3.987973
                                                         0.423000       0.000000
                          7       1    1fxyz             1.089000       6.907371
                                                         0.423000       0.000000
                          7       1    1fxz2             1.089000       3.987973
                                                         0.423000       0.000000
                          7       1    1fy3              1.089000       1.783476
                                                         0.423000       0.000000
                          7       1    1fy2z             1.089000       3.987973
                                                         0.423000       0.000000
                          7       1    1fyz2             1.089000       3.987973
                                                         0.423000       0.000000
                          7       1    1fz3              1.089000       1.783476
                                                         0.423000       0.000000

                          7       2    2fx3              1.089000       0.000000
                                                         0.423000       0.212432
                          7       2    2fx2y             1.089000       0.000000
                                                         0.423000       0.475013
                          7       2    2fx2z             1.089000       0.000000
                                                         0.423000       0.475013
                          7       2    2fxy2             1.089000       0.000000
                                                         0.423000       0.475013
                          7       2    2fxyz             1.089000       0.000000
                                                         0.423000       0.822746
                          7       2    2fxz2             1.089000       0.000000
                                                         0.423000       0.475013
                          7       2    2fy3              1.089000       0.000000
                                                         0.423000       0.212432
                          7       2    2fy2z             1.089000       0.000000
                                                         0.423000       0.475013
                          7       2    2fyz2             1.089000       0.000000
                                                         0.423000       0.475013
                          7       2    2fz3              1.089000       0.000000
                                                         0.423000       0.212432

                          8       1    1fx3              0.217000       0.047314
                          8       1    1fx2y             0.217000       0.105797
                          8       1    1fx2z             0.217000       0.105797
                          8       1    1fxy2             0.217000       0.105797
                          8       1    1fxyz             0.217000       0.183246
                          8       1    1fxz2             0.217000       0.105797
                          8       1    1fy3              0.217000       0.047314
                          8       1    1fy2z             0.217000       0.105797
                          8       1    1fyz2             0.217000       0.105797
                          8       1    1fz3              0.217000       0.047314

                          9       1    1gx4              0.827000       0.660048
                          9       1    1gx3y             0.827000       1.746323
                          9       1    1gx3z             0.827000       1.746323
                          9       1    1gx2y2            0.827000       2.254493
                          9       1    1gx2yz            0.827000       3.904897
                          9       1    1gx2z2            0.827000       2.254493
                          9       1    1gxy3             0.827000       1.746323
                          9       1    1gxy2z            0.827000       3.904897
                          9       1    1gxyz2            0.827000       3.904897
                          9       1    1gxz3             0.827000       1.746323
                          9       1    1gy4              0.827000       0.660048
                          9       1    1gy3z             0.827000       1.746323
                          9       1    1gy2z2            0.827000       2.254493
                          9       1    1gyz3             0.827000       1.746323
                          9       1    1gz4              0.827000       0.660048

                         10       1    1gx4              0.378000       0.076655
                         10       1    1gx3y             0.378000       0.202809
                         10       1    1gx3z             0.378000       0.202809
                         10       1    1gx2y2            0.378000       0.261825
                         10       1    1gx2yz            0.378000       0.453494
                         10       1    1gx2z2            0.378000       0.261825
                         10       1    1gxy3             0.378000       0.202809
                         10       1    1gxy2z            0.378000       0.453494
                         10       1    1gxyz2            0.378000       0.453494
                         10       1    1gxz3             0.378000       0.202809
                         10       1    1gy4              0.378000       0.076655
                         10       1    1gy3z             0.378000       0.202809
                         10       1    1gy2z2            0.378000       0.261825
                         10       1    1gyz3             0.378000       0.202809
                         10       1    1gz4              0.378000       0.076655

     AE Potential information for                                            ALL

       Description:                                       All-electron potential
                                          Krack, Parrinello, PCCP 2, 2105 (2000)

       Gaussian exponent of the core charge distribution:               2.974420
       Electronic configuration (s p d ...):                           6  11   0


 MOLECULE KIND INFORMATION


 All atoms are their own molecule, skipping detailed information


 TOTAL NUMBERS AND MAXIMUM NUMBERS

  Total number of            - Atomic kinds:                                   1
                             - Atoms:                                          2
                             - Shell sets:                                    20
                             - Shells:                                        44
                             - Primitive Cartesian functions:                 76
                             - Cartesian basis functions:                    218
                             - Spherical basis functions:                    168

  Maximum angular momentum of the orbital basis functions:                     4


 MODULE QUICKSTEP: ATOMIC COORDINATES IN ANGSTROM

   Atom Kind Element         X             Y             Z       Z(eff)     Mass
      1    1 Cl   17      9.003497     10.000002     10.000004  17.0000  35.4530
      2    1 Cl   17     10.996503      9.999998      9.999996  17.0000  35.4530



 SCF PARAMETERS         Density guess:                                    ATOMIC
                        --------------------------------------------------------
                        max_scf:                                              20
                        max_scf_history:                                       0
                        max_diis:                                              4
                        --------------------------------------------------------
                        eps_scf:                                        1.00E-07
                        eps_scf_history:                                0.00E+00
                        eps_diis:                                       1.00E-01
                        eps_eigval:                                     1.00E-05
                        --------------------------------------------------------
                        level_shift [a.u.]:                             0.000000
                        --------------------------------------------------------
                        Outer loop SCF in use 
                        No variables optimised in outer loop
                        eps_scf                                         1.00E-07
                        max_scf                                               50
                        No outer loop optimization
                        step_size                                       5.00E-01

 PW_GRID| Information for grid number                                          1
 PW_GRID| Grid distributed over                                   128 processors
 PW_GRID| Real space group dimensions                                   128    1
 PW_GRID| the grid is blocked:                                                NO
 PW_GRID| Cutoff [a.u.]                                                   1200.0
 PW_GRID| spherical cutoff:                                                   NO
 PW_GRID|   Bounds   1           -300     299                Points:         600
 PW_GRID|   Bounds   2           -300     299                Points:         600
 PW_GRID|   Bounds   3           -300     299                Points:         600
 PW_GRID| Volume element (a.u.^3)  0.2499E-03     Volume (a.u.^3)     53986.6767
 PW_GRID| Grid span                                                    FULLSPACE
 PW_GRID|   Distribution                         Average         Max         Min
 PW_GRID|   G-Vectors                          1687500.0     1687800     1687200
 PW_GRID|   G-Rays                                2812.5        2813        2812
 PW_GRID|   Real Space Points                  1687500.0     1800000     1440000

 PW_GRID| Information for grid number                                          2
 PW_GRID| Number of the reference grid                                         1
 PW_GRID| Grid distributed over                                   128 processors
 PW_GRID| Real space group dimensions                                   128    1
 PW_GRID| the grid is blocked:                                                NO
 PW_GRID| Cutoff [a.u.]                                                    600.0
 PW_GRID| spherical cutoff:                                                   NO
 PW_GRID|   Bounds   1           -216     215                Points:         432
 PW_GRID|   Bounds   2           -216     215                Points:         432
 PW_GRID|   Bounds   3           -216     215                Points:         432
 PW_GRID| Volume element (a.u.^3)  0.6696E-03     Volume (a.u.^3)     53986.6767
 PW_GRID| Grid span                                                    FULLSPACE
 PW_GRID|   Distribution                         Average         Max         Min
 PW_GRID|   G-Vectors                           629856.0      630288      629424
 PW_GRID|   G-Rays                                1458.0        1459        1457
 PW_GRID|   Real Space Points                   629856.0      746496      559872

 PW_GRID| Information for grid number                                          3
 PW_GRID| Number of the reference grid                                         2
 PW_GRID| Grid distributed over                                   128 processors
 PW_GRID| Real space group dimensions                                   128    1
 PW_GRID| the grid is blocked:                                                NO
 PW_GRID| Cutoff [a.u.]                                                    200.0
 PW_GRID| spherical cutoff:                                                   NO
 PW_GRID|   Bounds   1           -121     121                Points:         243
 PW_GRID|   Bounds   2           -121     121                Points:         243
 PW_GRID|   Bounds   3           -121     121                Points:         243
 PW_GRID| Volume element (a.u.^3)  0.3762E-02     Volume (a.u.^3)     53986.6767
 PW_GRID| Grid span                                                    FULLSPACE
 PW_GRID|   Distribution                         Average         Max         Min
 PW_GRID|   G-Vectors                           112100.8      112266      111780
 PW_GRID|   G-Rays                                 461.3         462         460
 PW_GRID|   Real Space Points                   112100.8      118098       59049

 PW_GRID| Information for grid number                                          4
 PW_GRID| Number of the reference grid                                         2
 PW_GRID| Grid distributed over                                   128 processors
 PW_GRID| Real space group dimensions                                   128    1
 PW_GRID| the grid is blocked:                                                NO
 PW_GRID| Cutoff [a.u.]                                                     66.7
 PW_GRID| spherical cutoff:                                                   NO
 PW_GRID|   Bounds   1            -72      71                Points:         144
 PW_GRID|   Bounds   2            -72      71                Points:         144
 PW_GRID|   Bounds   3            -72      71                Points:         144
 PW_GRID| Volume element (a.u.^3)  0.1808E-01     Volume (a.u.^3)     53986.6767
 PW_GRID| Grid span                                                    FULLSPACE
 PW_GRID|   Distribution                         Average         Max         Min
 PW_GRID|   G-Vectors                            23328.0       23472       23184
 PW_GRID|   G-Rays                                 162.0         163         161
 PW_GRID|   Real Space Points                    23328.0       41472       20736

 PW_GRID| Information for grid number                                          5
 PW_GRID| Number of the reference grid                                         2
 PW_GRID| Grid distributed over                                   128 processors
 PW_GRID| Real space group dimensions                                     8   16
 PW_GRID| the grid is blocked:                                                NO
 PW_GRID| Cutoff [a.u.]                                                     22.2
 PW_GRID| spherical cutoff:                                                   NO
 PW_GRID|   Bounds   1            -40      40                Points:          81
 PW_GRID|   Bounds   2            -40      40                Points:          81
 PW_GRID|   Bounds   3            -40      40                Points:          81
 PW_GRID| Volume element (a.u.^3)  0.1016         Volume (a.u.^3)     53986.6767
 PW_GRID| Grid span                                                    FULLSPACE
 PW_GRID|   Distribution                         Average         Max         Min
 PW_GRID|   G-Vectors                             4151.9        4293        4050
 PW_GRID|   G-Rays                                  51.3          53          50
 PW_GRID|   Real Space Points                     4151.9        5346        4050

 PW_GRID| Information for grid number                                          6
 PW_GRID| Number of the reference grid                                         2
 PW_GRID| Grid distributed over                                   128 processors
 PW_GRID| Real space group dimensions                                     8   16
 PW_GRID| the grid is blocked:                                                NO
 PW_GRID| Cutoff [a.u.]                                                      7.4
 PW_GRID| spherical cutoff:                                                   NO
 PW_GRID|   Bounds   1            -24      23                Points:          48
[...]
 matmuls total                              10256       0.0%    100.0%      0.0%
 number of processed stacks                  6947       0.0%    100.0%      0.0%
 average stack size                                     0.0       1.5       0.0
 marketing flops                     1.719201E+09
 -------------------------------------------------------------------------------
 # multiplications                           1908
 max memory usage/rank               1.938379E+09
 # max total images/rank                        2
 # max 3D layers                                1
 # MPI messages exchanged                 7082496
 MPI messages size (bytes):
  total size                         4.079305E+09
  min size                           0.000000E+00
  max size                         112.896000E+03
  average size                     575.969971E+00
 MPI breakdown and total messages size (bytes):
             size <=      128             7003007                        0
       128 < size <=     8192                6894                 15938928
      8192 < size <=    32768               41515                569799552
     32768 < size <=   131072               31080               3493566720
    131072 < size <=  4194304                   0                        0
   4194304 < size <= 16777216                   0                        0
  16777216 < size                               0                        0
 -------------------------------------------------------------------------------

 *** WARNING in dbcsr_mm.F:291 :: Using a non-square number of MPI ranks ***
 *** might lead to poor performance. Used ranks: 128 Suggested: 121 256  ***

 -------------------------------------------------------------------------------
 -                                                                             -
 -                      DBCSR MESSAGE PASSING PERFORMANCE                      -
 -                                                                             -
 -------------------------------------------------------------------------------
 ROUTINE             CALLS      AVE VOLUME [Bytes]
 MP_Bcast                9                     12.
 MP_Allreduce         8302                      8.
 MP_Alltoall         29123                  41621.
 MP_ISend           119098                   2947.
 MP_IRecv           118272                   2030.
 -------------------------------------------------------------------------------

 -------------------------------------------------------------------------------
 -                                                                             -
 -                                DBM STATISTICS                               -
 -                                                                             -
 -------------------------------------------------------------------------------
    M  x    N  x    K                                          COUNT     PERCENT
 -------------------------------------------------------------------------------

 -------------------------------------------------------------------------------
 -                                                                             -
 -                                GRID STATISTICS                              -
 -                                                                             -
 -------------------------------------------------------------------------------
 LP    KERNEL             BACKEND                              COUNT     PERCENT
 3     collocate ortho    CPU                                  40482       8.73%
 3     integrate ortho    CPU                                  39780       8.58%
 2     collocate ortho    CPU                                  39444       8.50%
 2     integrate ortho    CPU                                  38760       8.36%
 4     collocate ortho    CPU                                  37368       8.06%
 4     integrate ortho    CPU                                  36720       7.92%
 1     collocate ortho    CPU                                  31140       6.71%
 1     integrate ortho    CPU                                  30600       6.60%
 2     collocate general  CPU                                  26112       5.63%
 2     integrate general  CPU                                  25600       5.52%
 5     collocate ortho    CPU                                  24912       5.37%
 5     integrate ortho    CPU                                  24480       5.28%
 0     collocate ortho    CPU                                  12975       2.80%
 6     collocate ortho    CPU                                  12975       2.80%
 0     integrate ortho    CPU                                  12750       2.75%
 6     integrate ortho    CPU                                  12750       2.75%
 7     collocate ortho    CPU                                   6228       1.34%
 7     integrate ortho    CPU                                   6120       1.32%
 8     collocate ortho    CPU                                   2076       0.45%
 8     integrate ortho    CPU                                   2040       0.44%
 0     collocate general  CPU                                    256       0.06%
 0     integrate general  CPU                                    256       0.06%
 -------------------------------------------------------------------------------

 MEMORY| Estimated peak process memory [MiB]                                1872

 -------------------------------------------------------------------------------
 ----                             MULTIGRID INFO                            ----
 -------------------------------------------------------------------------------
 count for grid        1:       15721115          cutoff [a.u.]          600.00
 count for grid        2:        1325208          cutoff [a.u.]          200.00
 count for grid        3:        1071212          cutoff [a.u.]           66.67
 count for grid        4:         454631          cutoff [a.u.]           22.22
 count for grid        5:          34602          cutoff [a.u.]            7.41
 total gridlevel count  :       18606768

 -------------------------------------------------------------------------------
 -                                                                             -
 -                         MESSAGE PASSING PERFORMANCE                         -
 -                                                                             -
 -------------------------------------------------------------------------------

 ROUTINE             CALLS      AVE VOLUME [Bytes]
 MP_Group                6
 MP_Bcast             1114                 233671.
 MP_Allreduce         7778                  49793.
 MP_Sync              1648
 MP_Alltoall          4550               19114547.
 MP_SendRecv         65913                 127152.
 MP_ISendRecv       143764                 119121.
 MP_Wait            184773
 MP_comm_split          90
 MP_ISend            34506                 803109.
 MP_IRecv            37106                 746785.
 -------------------------------------------------------------------------------


 -------------------------------------------------------------------------------
 -                                                                             -
 -                           R E F E R E N C E S                               -
 -                                                                             -
 -------------------------------------------------------------------------------
 
 CP2K version 2024.1 (Development Version), the CP2K developers group (2024).
 CP2K is freely available from https://www.cp2k.org/ .

 Kuehne,Thomas D.; Iannuzzi,Marcella; Del Ben,Mauro;
 Rybkin,Vladimir V.; Seewald,Patrick; Stein,Frederick; Laino,Teodoro;
 Khaliullin,Rustam Z.; Schuett,Ole; Schiffmann,Florian; Golze,Dorothea;
 Wilhelm,Jan; Chulkov,Sergey; Bani-Hashemian,Mohammad Hossein;
 Weber,Valery; Borstnik,Urban; Taillefumier,Mathieu;
 Jakobovits,Alice Shoshana; Lazzaro,Alfio; Pabst,Hans; Mueller,Tiziano;
 Schade,Robert; Guidon,Manuel; Andermatt,Samuel; Holmberg,Nico;
 Schenter,Gregory K.; Hehn,Anna; Bussy,Augustin; Belleflamme,Fabian;
 Tabacchi,Gloria; Gloess,Andreas; Lass,Michael; Bethune,Iain;
 Mundy,Christopher J.; Plessl,Christian; Watkins,Matt;
 VandeVondele,Joost; Krack,Matthias; Hutter,Juerg. 
 The Journal of Chemical Physics, 152 (19), (2020). 
 CP2K: An electronic structure and molecular dynamics software package -
 Quickstep: Efficient and accurate electronic structure calculations.
 https://doi.org/10.1063/5.0007045

 Schuett, Ole; Messmer, Peter; Hutter, Juerg; VandeVondele, Joost. 
 Electronic Structure Calculations on Graphics Processing Units, John
 Wiley & Sons, Ltd, 173-190 (2016). 
 GPU-Accelerated Sparse Matrix-Matrix Multiplication for
 Linear Scaling Density Functional Theory.
 https://doi.org/10.1002/9781118670712.ch8

 Heinecke, A; Henry, G; Hutchinson, M; Pabst, H. 
 Proceedings of Intl. Supercomputing Conference, 981-991 (2016). 
 LIBXSMM: Accelerating Small Matrix Multiplications
 by Runtime Code Generation.
 https://doi.org/10.1109/SC.2016.83

 Borstnik, U; VandeVondele, J; Weber, V; Hutter, J. 
 PARALLEL COMPUTING, 40 (5-6), 47-58 (2014). 
 Sparse matrix multiplication: The distributed block-compressed sparse
 row library.
 https://doi.org/10.1016/j.parco.2014.03.012

 Hutter, J; Iannuzzi, M; Schiffmann, F; VandeVondele, J. 
 WIREs Comput Mol Sci., 4 (1), 15-25 (2014). 
 CP2K: atomistic simulations of condensed matter systems.
 https://doi.org/10.1002/wcms.1159

 Guidon, M; Hutter, J; VandeVondele, J. 
 JOURNAL OF CHEMICAL THEORY AND COMPUTATION, 5 (11), 3010-3021 (2009). 
 Robust Periodic Hartree-Fock Exchange for Large-Scale Simulations Using
 Gaussian Basis Sets.
 https://doi.org/10.1021/ct900494g

 Guidon, M; Schiffmann, F; Hutter, J; VandeVondele, J. 
 JOURNAL OF CHEMICAL PHYSICS, 128 (21), 214104 (2008). 
 Ab initio molecular dynamics using hybrid density functionals.
 https://doi.org/10.1063/1.2931945

 Frigo, M; Johnson, SG. 
 PROCEEDINGS OF THE IEEE, 93 (2), 216-231 (2005). 
 The design and implementation of FFTW3.
 https://doi.org/10.1109/JPROC.2004.840301

 Iannuzzi, M; Chassaing, T; Wallman, T; Hutter, J. 
 CHIMIA, 59 (7-8), 499-503 (2005). 
 Ground and excited state density functional calculations with the
 Gaussian and augmented-plane-wave method.
 https://doi.org/10.2533/000942905777676164

 VandeVondele, J; Hutter, J. 
 JOURNAL OF CHEMICAL PHYSICS, 118 (10), 4365-4369 (2003). 
 An efficient orbital transformation method for electronic structure
 calculations.
 https://doi.org/10.1063/1.1543154

 Martin,Richard L.. 
 The Journal of Chemical Physics, 118 (11), 4775-4777 (2003). 
 Natural transition orbitals.
 https://doi.org/10.1063/1.1558471

 Lippert, G; Hutter, J; Parrinello, M. 
 THEORETICAL CHEMISTRY ACCOUNTS, 103 (2), 124-140 (1999). 
 The Gaussian and augmented-plane-wave density functional method for ab
 initio molecular dynamics simulations.
 https://doi.org/10.1007/s002140050523

 Krack, M; Parrinello, M. 
 PHYSICAL CHEMISTRY CHEMICAL PHYSICS, 2 (10), 2105-2112 (2000). 
 All-electron ab-initio molecular dynamics.
 https://doi.org/10.1039/b001167n

 Martyna, GJ; Tuckerman, ME. 
 JOURNAL OF CHEMICAL PHYSICS, 110 (6), 2810-2821 (1999). 
 A reciprocal space based method for treating long range interactions in
 ab initio and force-field-based calculations in clusters.
 https://doi.org/10.1063/1.477923

 Perdew, JP; Burke, K; Ernzerhof, M. 
 PHYSICAL REVIEW LETTERS, 77 (18), 3865-3868 (1996). 
 Generalized gradient approximation made simple.
 https://doi.org/10.1103/PhysRevLett.77.3865


 -------------------------------------------------------------------------------
 -                                                                             -
 -                                T I M I N G                                  -
 -                                                                             -
 -------------------------------------------------------------------------------
 SUBROUTINE                       CALLS  ASD         SELF TIME        TOTAL TIME
                                MAXIMUM       AVERAGE  MAXIMUM  AVERAGE  MAXIMUM
 CP2K                                 1  1.0     4.45     4.54 10168.59 10168.65
 qs_energies                          1  2.0     0.02     0.06 10106.82 10106.91
 qs_energies_properties               1  3.0     0.00     0.01  8114.72  8114.80
 tddfpt                               1  4.0     0.03     0.10  8114.72  8114.80
 tddfpt_soc_energies                  1  5.0     0.02     0.09  8076.30  8076.37
 tddfpt_energies                      2  6.0     0.07     0.13  7997.80  7997.91
 tddfpt_davidson_solver               4  7.0     0.12     0.24  7158.22  7158.29
 tddfpt_compute_Aop_evects           14  8.0     0.03     0.09  6402.84  6403.10
 fhxc_kernel                         14  9.0     0.20     0.29  3777.71  3777.95
 mp_waitall_1                    361363 14.3  2707.14  2777.99  2707.14  2777.99
 tddfpt_apply_hfx                    14  9.0     0.02     0.07  2331.81  2331.93
 integrate_four_center              310 10.8     0.25     0.43  2062.75  2065.83
 scf_env_do_scf                       1  3.0     0.00     0.02  1967.60  1967.64
 cp_dbcsr_sm_fm_multiply            886  9.5     0.02     0.05  1733.27  1746.93
 qs_rho_update_rho_low              173  9.1     0.05     0.14  1632.78  1633.62
 tddft_hfx_matrix                   280 10.0     0.02     0.07  1621.99  1624.90
 scf_env_do_scf_inner_loop           30  4.0     0.02     0.06  1550.81  1550.93
 calculate_rho_elec                 173 10.1     0.92     1.50  1546.91  1548.80
 density_rs2pw                      173 11.1     0.02     0.08  1509.44  1513.90
 integrate_v_rspace                 170  9.8     0.02     0.10  1482.16  1489.48
 dbcsr_complete_redistribute       2892 11.5     0.24     0.50  1409.00  1444.08
 potential_pw2rs                    170 10.8     0.07     0.15  1424.06  1442.11
 transfer_rs2pw                     968 12.0     0.01     0.05  1276.29  1296.38
 transfer_pw2rs                     951 11.7     0.01     0.04  1275.85  1294.35
 mp_sendrecv_dv                   65913 14.1  1123.18  1142.83  1123.18  1142.83
 dbcsr_multiply_generic            1908 10.9     0.14     0.25  1008.65  1029.28
 copy_dbcsr_to_fm                   971 10.4     0.01     0.03  1012.71  1027.58
 pw_transfer                       3805 12.1     0.54     0.71   891.75   911.82
 fft_wrap_pw1pw2                   3503 13.2     0.05     0.11   889.80   909.78
 qs_ks_update_qs_env                 32  5.0     0.00     0.00   896.07   897.08
 rebuild_ks_matrix                   30  6.0     0.01     0.04   892.31   893.24
 qs_ks_build_kohn_sham_matrix        30  7.0     0.02     0.09   892.30   893.24
 cp_fm_syevd                         90  9.4     0.01     0.05   890.53   891.85
 integrate_four_center_getP         310 11.8     0.08     0.74   854.65   855.65
 integrate_four_center_dist_KS      310 11.8     0.10     0.56   838.11   839.26
 fft3d_ps                          3503 15.2   104.82   119.21   817.51   838.08
 cp_fm_redistribute_end              90 10.4   413.80   771.10   419.94   774.80
 tddfpt_print_nto_analysis            2  7.0     0.05     0.18   752.91   753.25
 cp_fm_syevd_base                    90 10.4   350.01   705.22   350.01   705.22
 copy_fm_to_dbcsr                  1917 10.6     0.01     0.08   659.56   695.06
 mp_sync                           1648 12.5   624.60   681.25   624.60   681.25
 mp_alltoall_d11v                 12022 12.7   635.07   680.49   635.07   680.49
 fft_wrap_pw1pw2_600               2130 14.3    10.57    11.55   659.26   679.56
 qs_scf_new_mos                      30  5.0     0.00     0.00   668.96   669.31
 qs_scf_loop_do_ot                   30  6.0     0.00     0.00   668.96   669.31
 ot_scf_mini                         30  7.0     0.00     0.02   649.86   650.13
 mp_alltoall_z22v                  3503 17.2   584.37   615.99   584.37   615.99
 cp_fm_geeig                         20  8.0     0.01     0.06   541.92   542.13
 mp_alltoall_i11v                  9735 12.5   512.06   513.19   512.06   513.19
 tddfpt_orthonormalize_psi1_psi      16  7.9     0.03     0.08   503.10   506.18
 mp_sum_l                          8004 11.3   464.93   483.97   464.93   483.97
 transfer_pw2rs_70                  170 12.8     8.19    13.26   454.72   482.07
 transfer_rs2pw_70                  173 13.1     5.62     8.68   450.13   474.73
 hfx_ks_matrix                       30  8.0     0.00     0.01   440.79   441.03
 tddfpt_apply_xc_analytic           140 10.0     2.22     2.73   434.79   437.71
 init_scf_loop                        2  4.0     0.01     0.06   415.57   415.64
 transfer_pw2rs_30                  170 12.8     0.54     2.23   365.57   395.08
 xc_pw_derive                      1239 11.7     0.03     0.10   383.04   391.32
 transfer_rs2pw_30                  173 13.1     0.61     1.05   363.62   386.27
 cp_dbcsr_sm_fm_multiply_core       886 10.5     0.01     0.04   360.58   379.55
 yz_to_x                           1305 16.6    11.54    13.20   311.48   338.83
 integrate_four_center_main         310 11.8     0.04     0.10    12.58   327.90
 integrate_four_center_bin        39680 12.8    12.53   327.85    12.53   327.85
 transfer_rs2pw_10                  173 13.1     0.19     1.83   315.85   324.00
 ot_mini                             30  8.0     0.01     0.03   322.61   323.09
 transfer_pw2rs_10                  170 12.8     0.15     0.80   308.19   313.97
 mp_cart_sub                       1950 12.4   310.43   311.60   310.43   311.60
 mp_sum_dv                         4631 10.3   295.42   301.80   295.42   301.80
 tddfpt_apply_energy_diff            14  9.0     0.01     0.04   293.29   293.39
 multiply_cannon                   1908 11.9     0.14     0.17   263.36   287.85
 cp_dbcsr_plus_fm_fm_t_native       141 10.0     0.02     0.07   278.12   280.36
 dbcsr_desymmetrize_deep            972 11.4     0.03     0.09   264.77   279.59
 qs_ot_get_p                         32  7.9     0.00     0.01   276.71   277.00
 x_to_yz                           1512 15.9    19.32    29.97   269.28   274.96
 qs_ot_get_derivative                30  9.0     0.01     0.04   267.56   267.86
 sum_up_and_integrate                30  8.0     0.00     0.03   251.75   252.79
 xc_calc_2nd_deriv_analytical       420 11.0    55.15    62.84   237.54   238.73
 mp_alltoall_i22                   3893 12.5   198.71   229.95   198.71   229.95
 qs_ot_p2m_diag                      29  9.0     0.01     0.04   228.98   229.35
 cp_fm_trace_a1b1t1_aa             3880  9.0     0.02     0.05   222.42   225.30
 cp_dbcsr_syevd                      33  9.7     0.00     0.03   218.82   219.94
 xc_pw_divergence                   170 11.6     0.02     0.07   210.89   217.89
 mp_sum_dm                         1009 11.0   201.98   208.11   201.98   208.11
 make_m2s                          3816 11.9     0.05     0.07   194.49   207.63
 make_images                       3816 12.9     0.10     0.17   194.38   207.51
 make_images_sizes                 3816 13.9     0.01     0.05   193.93   203.81
 mp_alltoall_i44                   3816 14.9   193.92   203.79   193.92   203.79
 -------------------------------------------------------------------------------

 The number of warnings for this run is : 1
 
 -------------------------------------------------------------------------------
  **** **** ******  **  PROGRAM ENDED AT                 2024-02-05 12:31:11.753
 ***** ** ***  *** **   PROGRAM RAN ON                               nesh-clk562
 **    ****   ******    PROGRAM RAN BY                                  suphc355
 ***** **    ** ** **   PROGRAM PROCESS ID                               3973926
  **** **  *******  **  PROGRAM STOPPED IN /gxfs_work/cau/suphc355/homologes/X2/
                                           AE/Cl
