 DBCSR| CPU Multiplication driver                                           XSMM (U)
 DBCSR| Multrec recursion limit                                              512 (U)
 DBCSR| Multiplication stack size                                           1000 (D)
 DBCSR| Maximum elements for images                                    UNLIMITED (U)
 DBCSR| Multiplicative factor virtual images                                   1 (U)
 DBCSR| Use multiplication densification                                       T (D)
 DBCSR| Multiplication size stacks                                             3 (U)
 DBCSR| Use memory pool for CPU allocation                                     F (U)
 DBCSR| Number of 3D layers                                               SINGLE (U)
 DBCSR| Use MPI memory allocation                                              F (U)
 DBCSR| Use RMA algorithm                                                      F (U)
 DBCSR| Use Communication thread                                               T (U)
 DBCSR| Communication thread load                                             83 (D)
 DBCSR| MPI: My process id                                                     0
 DBCSR| MPI: Number of processes                                             128
 DBCSR| OMP: Current number of threads                                         2
 DBCSR| OMP: Max number of threads                                             2
 DBCSR| Split modifier for TAS multiplication algorithm                  1.0E+00 (U)


  **** **** ******  **  PROGRAM STARTED AT               2024-01-12 14:50:58.881
 ***** ** ***  *** **   PROGRAM STARTED ON                           nesh-srp100
 **    ****   ******    PROGRAM STARTED BY                              suphc355
 ***** **    ** ** **   PROGRAM PROCESS ID                               2628304
  **** **  *******  **  PROGRAM STARTED IN /gxfs_work/cau/suphc355/homologes/X2/
                                           AE/Cl

 CP2K| version string:                 CP2K version 2024.1 (Development Version)
 CP2K| source code revision number:                                  git:15182a3
 CP2K| cp2kflags: omp libint fftw3 libxc libgrpp parallel mpi_f08 scalapack cosm
 CP2K|            a xsmm spglib mkl
 CP2K| is freely available from                            https://www.cp2k.org/
 CP2K| Program compiled at                           Di 9. Jan 09:05:01 CET 2024
 CP2K| Program compiled on                                           nesh-login2
 CP2K| Program compiled for                                                local
 CP2K| Data directory path            /gxfs_home/cau/suphc355/software/cp2k/data
 CP2K| Input file name                                                AE_aug.inp
 
 GLOBAL| Force Environment number                                              1
 GLOBAL| Basis set file name                                  ../../../basis_aug
 GLOBAL| Potential file name                                           POTENTIAL
 GLOBAL| MM Potential file name                                     MM_POTENTIAL
 GLOBAL| Coordinate file name                                            opt.xyz
 GLOBAL| Method name                                                        CP2K
 GLOBAL| Project name                                                 Cl2_AE_aug
 GLOBAL| Run type                                                         ENERGY
 GLOBAL| FFT library                                                       FFTW3
 GLOBAL| Diagonalization library                                       ScaLAPACK
 GLOBAL| DGEMM library                                                      BLAS
 GLOBAL| Orthonormality check for eigenvectors                          DISABLED
 GLOBAL| Matrix multiplication library                                     COSMA
 GLOBAL| All-to-all communication in single precision                          F
 GLOBAL| FFTs using library dependent lengths                                  F
 GLOBAL| Grid backend                                                       AUTO
 GLOBAL| Global print level                                               MEDIUM
 GLOBAL| MPI I/O enabled                                                       T
 GLOBAL| Total number of message passing processes                           128
 GLOBAL| Number of threads for this process                                    2
 GLOBAL| This output is from process                                           0
 GLOBAL| Stack size for threads created by OpenMP (OMP_STACKSIZE)        default
 GLOBAL| CPU model name                              Intel(R) Xeon(R) Gold 6426Y
 GLOBAL| CPUID                                                              1003

 MEMORY| system memory details [Kb]
 MEMORY|                        rank 0           min           max       average
 MEMORY| MemTotal            263788440     263786136     263788440     263786712
 MEMORY| MemFree             243413664     243413664     244003136     243844153
 MEMORY| Buffers                954944        951084        954944        952677
 MEMORY| Cached                1039328        722780       1039328        803036
 MEMORY| Slab                   570216        513260        570216        528605
 MEMORY| SReclaimable           170612        135560        170612        144705
 MEMORY| MemLikelyFree       245578548     245578548     245814156     245744571


 *** Fundamental physical constants (SI units) ***

 *** Literature: B. J. Mohr and B. N. Taylor,
 ***             CODATA recommended values of the fundamental physical
 ***             constants: 2006, Web Version 5.1
 ***             http://physics.nist.gov/constants

 Speed of light in vacuum [m/s]                             2.99792458000000E+08
 Magnetic constant or permeability of vacuum [N/A**2]       1.25663706143592E-06
 Electric constant or permittivity of vacuum [F/m]          8.85418781762039E-12
 Planck constant (h) [J*s]                                  6.62606896000000E-34
 Planck constant (h-bar) [J*s]                              1.05457162825177E-34
 Elementary charge [C]                                      1.60217648700000E-19
 Electron mass [kg]                                         9.10938215000000E-31
 Electron g factor [ ]                                     -2.00231930436220E+00
 Proton mass [kg]                                           1.67262163700000E-27
 Fine-structure constant                                    7.29735253760000E-03
 Rydberg constant [1/m]                                     1.09737315685270E+07
 Avogadro constant [1/mol]                                  6.02214179000000E+23
 Boltzmann constant [J/K]                                   1.38065040000000E-23
 Atomic mass unit [kg]                                      1.66053878200000E-27
 Bohr radius [m]                                            5.29177208590000E-11

 *** Conversion factors ***

 [u] -> [a.u.]                                              1.82288848426455E+03
 [Angstrom] -> [Bohr] = [a.u.]                              1.88972613288564E+00
 [a.u.] = [Bohr] -> [Angstrom]                              5.29177208590000E-01
 [a.u.] -> [s]                                              2.41888432650478E-17
 [a.u.] -> [fs]                                             2.41888432650478E-02
 [a.u.] -> [J]                                              4.35974393937059E-18
 [a.u.] -> [N]                                              8.23872205491840E-08
 [a.u.] -> [K]                                              3.15774647902944E+05
 [a.u.] -> [kJ/mol]                                         2.62549961709828E+03
 [a.u.] -> [kcal/mol]                                       6.27509468713739E+02
 [a.u.] -> [Pa]                                             2.94210107994716E+13
 [a.u.] -> [bar]                                            2.94210107994716E+08
 [a.u.] -> [atm]                                            2.90362800883016E+08
 [a.u.] -> [eV]                                             2.72113838565563E+01
 [a.u.] -> [Hz]                                             6.57968392072181E+15
 [a.u.] -> [1/cm] (wave numbers)                            2.19474631370540E+05
 [a.u./Bohr**2] -> [1/cm]                                   5.14048714338585E+03
 

 CELL_TOP| Volume [angstrom^3]:                                       512.000000
 CELL_TOP| Vector a [angstrom     8.000     0.000     0.000   |a| =     8.000000
 CELL_TOP| Vector b [angstrom     0.000     8.000     0.000   |b| =     8.000000
 CELL_TOP| Vector c [angstrom     0.000     0.000     8.000   |c| =     8.000000
 CELL_TOP| Angle (b,c), alpha [degree]:                                90.000000
 CELL_TOP| Angle (a,c), beta  [degree]:                                90.000000
 CELL_TOP| Angle (a,b), gamma [degree]:                                90.000000
 CELL_TOP| Numerically orthorhombic:                                         YES
 CELL_TOP| Periodicity                                                      NONE
 
 GENERATE|  Preliminary Number of Bonds generated:                             0
 GENERATE|  Achieved consistency in connectivity generation.

 CELL| Volume [angstrom^3]:                                           512.000000
 CELL| Vector a [angstrom]:       8.000     0.000     0.000   |a| =     8.000000
 CELL| Vector b [angstrom]:       0.000     8.000     0.000   |b| =     8.000000
 CELL| Vector c [angstrom]:       0.000     0.000     8.000   |c| =     8.000000
 CELL| Angle (b,c), alpha [degree]:                                    90.000000
 CELL| Angle (a,c), beta  [degree]:                                    90.000000
 CELL| Angle (a,b), gamma [degree]:                                    90.000000
 CELL| Numerically orthorhombic:                                             YES
 CELL| Periodicity                                                          NONE

 CELL_REF| Volume [angstrom^3]:                                       512.000000
 CELL_REF| Vector a [angstrom     8.000     0.000     0.000   |a| =     8.000000
 CELL_REF| Vector b [angstrom     0.000     8.000     0.000   |b| =     8.000000
 CELL_REF| Vector c [angstrom     0.000     0.000     8.000   |c| =     8.000000
 CELL_REF| Angle (b,c), alpha [degree]:                                90.000000
 CELL_REF| Angle (a,c), beta  [degree]:                                90.000000
 CELL_REF| Angle (a,b), gamma [degree]:                                90.000000
 CELL_REF| Numerically orthorhombic:                                         YES
 CELL_REF| Periodicity                                                      NONE

 *******************************************************************************
 *******************************************************************************
 **                                                                           **
 **     #####                         ##              ##                      **
 **    ##   ##            ##          ##              ##                      **
 **   ##     ##                       ##            ######                    **
 **   ##     ##  ##   ##  ##   #####  ##  ##   ####   ##    #####    #####    **
 **   ##     ##  ##   ##  ##  ##      ## ##   ##      ##   ##   ##  ##   ##   **
 **   ##  ## ##  ##   ##  ##  ##      ####     ###    ##   ######   ######    **
 **    ##  ###   ##   ##  ##  ##      ## ##      ##   ##   ##       ##        **
 **     #######   #####   ##   #####  ##  ##  ####    ##    #####   ##        **
 **           ##                                                    ##        **
 **                                                                           **
 **                                                ... make the atoms dance   **
 **                                                                           **
 **            Copyright (C) by CP2K developers group (2000-2024)             **
 **                      J. Chem. Phys. 152, 194103 (2020)                    **
 **                                                                           **
 *******************************************************************************

 DFT| Spin restricted Kohn-Sham (RKS) calculation                            RKS
 DFT| Multiplicity                                                             1
 DFT| Number of spin states                                                    1
 DFT| Charge                                                                   0
 DFT| Self-interaction correction (SIC)                                       NO
 DFT| Cutoffs: density                                              1.000000E-10
 DFT|          gradient                                             1.000000E-10
 DFT|          tau                                                  1.000000E-10
 DFT|          cutoff_smoothing_range                               0.000000E+00
 DFT| XC density smoothing                                                  NONE
 DFT| XC derivatives                                                          PW

 FUNCTIONAL| PBE:
 FUNCTIONAL| J.P.Perdew, K.Burke, M.Ernzerhof, Phys. Rev. Letter, vol. 77, n 18,
 FUNCTIONAL|  pp. 3865-3868, (1996) {spin unpolarized}                          


 QS| Method:                                                                GAPW
 QS| Density plane wave grid type                        NON-SPHERICAL FULLSPACE
 QS| Number of grid levels:                                                    5
 QS| Density cutoff [a.u.]:                                                600.0
 QS| Multi grid cutoff [a.u.]: 1) grid level                               600.0
 QS|                           2) grid level                               200.0
 QS|                           3) grid level                                66.7
 QS|                           4) grid level                                22.2
 QS|                           5) grid level                                 7.4
 QS| Grid level progression factor:                                          3.0
 QS| Relative density cutoff [a.u.]:                                        40.0
 QS| Interaction thresholds: eps_pgf_orb:                                1.0E-30
 QS|                         eps_filter_matrix:                          0.0E+00
 QS|                         eps_core_charge:                            1.0E-17
 QS|                         eps_rho_gspace:                             1.0E-15
 QS|                         eps_rho_rspace:                             1.0E-15
 QS|                         eps_gvg_rspace:                             3.2E-08
 QS|                         eps_ppl:                                    1.0E-02
 QS|                         eps_ppnl:                                   3.2E-10
 QS| GAPW|      One center basis from orbital basis primitives
 QS| GAPW|                   eps_fit:                                    1.0E-04
 QS| GAPW|                   eps_iso:                                    1.0E-12
 QS| GAPW|                   eps_svd:                                    1.0E-08
 QS| GAPW|                   eps_cpc:                                    1.0E-15
 QS| GAPW|   atom-r-grid: quadrature:                                     GC_LOG
 QS| GAPW|      atom-s-grid:  max l :                                          8
 QS| GAPW|      max_l_rho0 :                                                   2


 ATOMIC KIND INFORMATION

  1. Atomic kind: Cl                                    Number of atoms:       2

     Orbital Basis Set                                               aug-cc-pVQZ

       Number of orbital shell sets:                                          10
       Number of orbital shells:                                              22
       Number of primitive Cartesian functions:                               38
       Number of Cartesian basis functions:                                  109
       Number of spherical basis functions:                                   84
       Norm type:                                                              2

       Normalised Cartesian orbitals:

                        Set   Shell   Orbital            Exponent    Coefficient

                          1       1    1s           834900.000000       0.456078
                                                    125000.000000       0.853565
                                                     28430.000000       1.478942
                                                      8033.000000       2.419799
                                                      2608.000000       3.761804
                                                       933.900000       5.497407
                                                       360.000000       7.259669
                                                       147.000000       7.954421
                                                        62.880000       6.095099
                                                        27.600000       2.325174
                                                        11.080000       0.204037
                                                         5.075000      -0.008959
                                                         2.278000       0.002896
                                                         0.777500      -0.000502
                                                         0.352700       0.000139
                                                         0.143100      -0.000020

                          1       2    2s           834900.000000      -0.127884
                                                    125000.000000      -0.239218
                                                     28430.000000      -0.415249
                                                      8033.000000      -0.680326
                                                      2608.000000      -1.067703
                                                       933.900000      -1.589156
                                                       360.000000      -2.210874
                                                       147.000000      -2.699624
                                                        62.880000      -2.668408
                                                        27.600000      -1.499827
                                                        11.080000       0.497358
                                                         5.075000       1.358225
                                                         2.278000       0.583593
                                                         0.777500       0.025180
                                                         0.352700      -0.002176
                                                         0.143100       0.000316

                          1       3    3s           834900.000000       0.000000
                                                    125000.000000       0.000000
                                                     28430.000000       0.000000
                                                      8033.000000       0.000000
                                                      2608.000000       0.000000
                                                       933.900000       0.000000
                                                       360.000000       0.000000
                                                       147.000000       0.000000
                                                        62.880000       0.000000
                                                        27.600000       0.000000
                                                        11.080000       0.000000
                                                         5.075000       0.000000
                                                         2.278000       0.000000
                                                         0.777500       0.590113
                                                         0.352700       0.000000
                                                         0.143100       0.000000

                          1       4    4s           834900.000000       0.000000
                                                    125000.000000       0.000000
                                                     28430.000000       0.000000
                                                      8033.000000       0.000000
                                                      2608.000000       0.000000
                                                       933.900000       0.000000
                                                       360.000000       0.000000
                                                       147.000000       0.000000
                                                        62.880000       0.000000
                                                        27.600000       0.000000
                                                        11.080000       0.000000
                                                         5.075000       0.000000
                                                         2.278000       0.000000
                                                         0.777500       0.000000
                                                         0.352700       0.326185
                                                         0.143100       0.000000

                          1       5    5s           834900.000000       0.038710
                                                    125000.000000       0.072311
                                                     28430.000000       0.125784
                                                      8033.000000       0.205587
                                                      2608.000000       0.323957
                                                       933.900000       0.481142
                                                       360.000000       0.675917
                                                       147.000000       0.828945
                                                        62.880000       0.848113
                                                        27.600000       0.490247
                                                        11.080000      -0.171054
                                                         5.075000      -0.637022
                                                         2.278000      -0.461597
                                                         0.777500       0.159136
                                                         0.352700       0.220525
                                                         0.143100       0.047206

                          1       6    6s           834900.000000       0.000000
                                                    125000.000000       0.000000
                                                     28430.000000       0.000000
                                                      8033.000000       0.000000
                                                      2608.000000       0.000000
                                                       933.900000       0.000000
                                                       360.000000       0.000000
                                                       147.000000       0.000000
                                                        62.880000       0.000000
                                                        27.600000       0.000000
                                                        11.080000       0.000000
                                                         5.075000       0.000000
                                                         2.278000       0.000000
                                                         0.777500       0.000000
                                                         0.352700       0.000000
                                                         0.143100       0.165821

                          2       1    1s                0.051900       0.077497

                          3       1    1px            1703.000000       7.392180
                                                       403.600000      10.479622
                                                       130.300000      13.388240
                                                        49.050000      14.702578
                                                        20.260000      12.800709
                                                         8.787000       7.869884
                                                         3.919000       2.921669
                                                         1.765000       0.424220
                                                         0.720700       0.010214
                                                         0.283900       0.000346
                                                         0.106000       0.000029
                          3       1    1py            1703.000000       7.392180
                                                       403.600000      10.479622
                                                       130.300000      13.388240
                                                        49.050000      14.702578
                                                        20.260000      12.800709
                                                         8.787000       7.869884
                                                         3.919000       2.921669
                                                         1.765000       0.424220
                                                         0.720700       0.010214
                                                         0.283900       0.000346
                                                         0.106000       0.000029
                          3       1    1pz            1703.000000       7.392180
                                                       403.600000      10.479622
                                                       130.300000      13.388240
                                                        49.050000      14.702578
                                                        20.260000      12.800709
                                                         8.787000       7.869884
                                                         3.919000       2.921669
                                                         1.765000       0.424220
                                                         0.720700       0.010214
                                                         0.283900       0.000346
                                                         0.106000       0.000029

                          3       2    2px            1703.000000       0.000000
                                                       403.600000       0.000000
                                                       130.300000       0.000000
                                                        49.050000       0.000000
                                                        20.260000       0.000000
                                                         8.787000       0.000000
                                                         3.919000       0.000000
                                                         1.765000       0.000000
                                                         0.720700       0.946528
                                                         0.283900       0.000000
                                                         0.106000       0.000000
                          3       2    2py            1703.000000       0.000000
                                                       403.600000       0.000000
                                                       130.300000       0.000000
                                                        49.050000       0.000000
                                                        20.260000       0.000000
                                                         8.787000       0.000000
                                                         3.919000       0.000000
                                                         1.765000       0.000000
                                                         0.720700       0.946528
                                                         0.283900       0.000000
                                                         0.106000       0.000000
                          3       2    2pz            1703.000000       0.000000
                                                       403.600000       0.000000
                                                       130.300000       0.000000
                                                        49.050000       0.000000
                                                        20.260000       0.000000
                                                         8.787000       0.000000
                                                         3.919000       0.000000
                                                         1.765000       0.000000
                                                         0.720700       0.946528
                                                         0.283900       0.000000
                                                         0.106000       0.000000

                          3       3    3px            1703.000000      -2.000184
                                                       403.600000      -2.819822
                                                       130.300000      -3.661076
                                                        49.050000      -4.056901
                                                        20.260000      -3.684614
                                                         8.787000      -2.305879
                                                         3.919000      -0.962459
                                                         1.765000       0.111243
                                                         0.720700       0.364655
                                                         0.283900       0.149841
                                                         0.106000       0.019589
                          3       3    3py            1703.000000      -2.000184
                                                       403.600000      -2.819822
                                                       130.300000      -3.661076
                                                        49.050000      -4.056901
                                                        20.260000      -3.684614
                                                         8.787000      -2.305879
                                                         3.919000      -0.962459
                                                         1.765000       0.111243
                                                         0.720700       0.364655
                                                         0.283900       0.149841
                                                         0.106000       0.019589
                          3       3    3pz            1703.000000      -2.000184
                                                       403.600000      -2.819822
                                                       130.300000      -3.661076
                                                        49.050000      -4.056901
                                                        20.260000      -3.684614
                                                         8.787000      -2.305879
                                                         3.919000      -0.962459
                                                         1.765000       0.111243
                                                         0.720700       0.364655
                                                         0.283900       0.149841
                                                         0.106000       0.019589

                          3       4    4px            1703.000000       0.000000
                                                       403.600000       0.000000
                                                       130.300000       0.000000
                                                        49.050000       0.000000
                                                        20.260000       0.000000
                                                         8.787000       0.000000
                                                         3.919000       0.000000
                                                         1.765000       0.000000
                                                         0.720700       0.000000
                                                         0.283900       0.295391
                                                         0.106000       0.000000
                          3       4    4py            1703.000000       0.000000
                                                       403.600000       0.000000
                                                       130.300000       0.000000
                                                        49.050000       0.000000
                                                        20.260000       0.000000
                                                         8.787000       0.000000
                                                         3.919000       0.000000
                                                         1.765000       0.000000
                                                         0.720700       0.000000
                                                         0.283900       0.295391
                                                         0.106000       0.000000
                          3       4    4pz            1703.000000       0.000000
                                                       403.600000       0.000000
                                                       130.300000       0.000000
                                                        49.050000       0.000000
                                                        20.260000       0.000000
                                                         8.787000       0.000000
                                                         3.919000       0.000000
                                                         1.765000       0.000000
                                                         0.720700       0.000000
                                                         0.283900       0.295391
                                                         0.106000       0.000000

                          3       5    5px            1703.000000       0.000000
                                                       403.600000       0.000000
                                                       130.300000       0.000000
                                                        49.050000       0.000000
                                                        20.260000       0.000000
                                                         8.787000       0.000000
                                                         3.919000       0.000000
                                                         1.765000       0.000000
                                                         0.720700       0.000000
                                                         0.283900       0.000000
                                                         0.106000       0.086213
                          3       5    5py            1703.000000       0.000000
                                                       403.600000       0.000000
                                                       130.300000       0.000000
                                                        49.050000       0.000000
                                                        20.260000       0.000000
                                                         8.787000       0.000000
                                                         3.919000       0.000000
                                                         1.765000       0.000000
                                                         0.720700       0.000000
                                                         0.283900       0.000000
                                                         0.106000       0.086213
                          3       5    5pz            1703.000000       0.000000
                                                       403.600000       0.000000
                                                       130.300000       0.000000
                                                        49.050000       0.000000
                                                        20.260000       0.000000
                                                         8.787000       0.000000
                                                         3.919000       0.000000
                                                         1.765000       0.000000
                                                         0.720700       0.000000
                                                         0.283900       0.000000
                                                         0.106000       0.086213

                          4       1    1px               0.037600       0.023601
                          4       1    1py               0.037600       0.023601
                          4       1    1pz               0.037600       0.023601

                          5       1    1dx2              1.551000       3.547971
                                                         0.628000       0.000000
                                                         0.254000       0.000000
                          5       1    1dxy              1.551000       6.145267
                                                         0.628000       0.000000
                                                         0.254000       0.000000
                          5       1    1dxz              1.551000       6.145267
                                                         0.628000       0.000000
                                                         0.254000       0.000000
                          5       1    1dy2              1.551000       3.547971
                                                         0.628000       0.000000
                                                         0.254000       0.000000
                          5       1    1dyz              1.551000       6.145267
                                                         0.628000       0.000000
                                                         0.254000       0.000000
                          5       1    1dz2              1.551000       3.547971
                                                         0.628000       0.000000
                                                         0.254000       0.000000

                          5       2    2dx2              1.551000       0.000000
                                                         0.628000       0.729187
                                                         0.254000       0.000000
                          5       2    2dxy              1.551000       0.000000
                                                         0.628000       1.262989
                                                         0.254000       0.000000
                          5       2    2dxz              1.551000       0.000000
                                                         0.628000       1.262989
                                                         0.254000       0.000000
                          5       2    2dy2              1.551000       0.000000
                                                         0.628000       0.729187
                                                         0.254000       0.000000
                          5       2    2dyz              1.551000       0.000000
                                                         0.628000       1.262989
                                                         0.254000       0.000000
                          5       2    2dz2              1.551000       0.000000
                                                         0.628000       0.729187
                                                         0.254000       0.000000

                          5       3    3dx2              1.551000       0.000000
                                                         0.628000       0.000000
                                                         0.254000       0.149578
                          5       3    3dxy              1.551000       0.000000
                                                         0.628000       0.000000
                                                         0.254000       0.259077
                          5       3    3dxz              1.551000       0.000000
                                                         0.628000       0.000000
                                                         0.254000       0.259077
                          5       3    3dy2              1.551000       0.000000
                                                         0.628000       0.000000
                                                         0.254000       0.149578
                          5       3    3dyz              1.551000       0.000000
                                                         0.628000       0.000000
                                                         0.254000       0.259077
                          5       3    3dz2              1.551000       0.000000
                                                         0.628000       0.000000
                                                         0.254000       0.149578

                          6       1    1dx2              0.095200       0.026855
                          6       1    1dxy              0.095200       0.046514
                          6       1    1dxz              0.095200       0.046514
                          6       1    1dy2              0.095200       0.026855
                          6       1    1dyz              0.095200       0.046514
                          6       1    1dz2              0.095200       0.026855

                          7       1    1fx3              1.089000       1.783476
                                                         0.423000       0.000000
                          7       1    1fx2y             1.089000       3.987973
                                                         0.423000       0.000000
                          7       1    1fx2z             1.089000       3.987973
                                                         0.423000       0.000000
                          7       1    1fxy2             1.089000       3.987973
                                                         0.423000       0.000000
                          7       1    1fxyz             1.089000       6.907371
                                                         0.423000       0.000000
                          7       1    1fxz2             1.089000       3.987973
                                                         0.423000       0.000000
                          7       1    1fy3              1.089000       1.783476
                                                         0.423000       0.000000
                          7       1    1fy2z             1.089000       3.987973
                                                         0.423000       0.000000
                          7       1    1fyz2             1.089000       3.987973
                                                         0.423000       0.000000
                          7       1    1fz3              1.089000       1.783476
                                                         0.423000       0.000000

                          7       2    2fx3              1.089000       0.000000
                                                         0.423000       0.212432
                          7       2    2fx2y             1.089000       0.000000
                                                         0.423000       0.475013
                          7       2    2fx2z             1.089000       0.000000
                                                         0.423000       0.475013
                          7       2    2fxy2             1.089000       0.000000
                                                         0.423000       0.475013
                          7       2    2fxyz             1.089000       0.000000
                                                         0.423000       0.822746
                          7       2    2fxz2             1.089000       0.000000
                                                         0.423000       0.475013
                          7       2    2fy3              1.089000       0.000000
                                                         0.423000       0.212432
                          7       2    2fy2z             1.089000       0.000000
                                                         0.423000       0.475013
                          7       2    2fyz2             1.089000       0.000000
                                                         0.423000       0.475013
                          7       2    2fz3              1.089000       0.000000
                                                         0.423000       0.212432

                          8       1    1fx3              0.217000       0.047314
                          8       1    1fx2y             0.217000       0.105797
                          8       1    1fx2z             0.217000       0.105797
                          8       1    1fxy2             0.217000       0.105797
                          8       1    1fxyz             0.217000       0.183246
                          8       1    1fxz2             0.217000       0.105797
                          8       1    1fy3              0.217000       0.047314
                          8       1    1fy2z             0.217000       0.105797
                          8       1    1fyz2             0.217000       0.105797
                          8       1    1fz3              0.217000       0.047314

                          9       1    1gx4              0.827000       0.660048
                          9       1    1gx3y             0.827000       1.746323
                          9       1    1gx3z             0.827000       1.746323
                          9       1    1gx2y2            0.827000       2.254493
                          9       1    1gx2yz            0.827000       3.904897
                          9       1    1gx2z2            0.827000       2.254493
                          9       1    1gxy3             0.827000       1.746323
                          9       1    1gxy2z            0.827000       3.904897
                          9       1    1gxyz2            0.827000       3.904897
                          9       1    1gxz3             0.827000       1.746323
                          9       1    1gy4              0.827000       0.660048
                          9       1    1gy3z             0.827000       1.746323
                          9       1    1gy2z2            0.827000       2.254493
                          9       1    1gyz3             0.827000       1.746323
                          9       1    1gz4              0.827000       0.660048

                         10       1    1gx4              0.378000       0.076655
                         10       1    1gx3y             0.378000       0.202809
                         10       1    1gx3z             0.378000       0.202809
                         10       1    1gx2y2            0.378000       0.261825
                         10       1    1gx2yz            0.378000       0.453494
                         10       1    1gx2z2            0.378000       0.261825
                         10       1    1gxy3             0.378000       0.202809
                         10       1    1gxy2z            0.378000       0.453494
                         10       1    1gxyz2            0.378000       0.453494
                         10       1    1gxz3             0.378000       0.202809
                         10       1    1gy4              0.378000       0.076655
                         10       1    1gy3z             0.378000       0.202809
                         10       1    1gy2z2            0.378000       0.261825
                         10       1    1gyz3             0.378000       0.202809
                         10       1    1gz4              0.378000       0.076655

       Atomic covalent radius [Angstrom]:                                  0.990

       Atomic van der Waals radius [Angstrom]:                             1.750

     The atoms of this atomic kind are PAW atoms (GAPW):
       Hard Gaussian function radius:                                      1.512
       Rho0 radius:                                                        1.512
       Maximum GTO radius used for PAW projector construction:            24.566

     GAPW Soft Basis Set                                        aug-cc-pVQZ_soft

       Number of orbital shell sets:                                          10
       Number of orbital shells:                                              22
       Number of primitive Cartesian functions:                               20
       Number of Cartesian basis functions:                                  109
       Number of spherical basis functions:                                   84
       Norm type:                                                              2

       Normalised Cartesian orbitals:

                        Set   Shell   Orbital            Exponent    Coefficient

                          1       1    1s                2.278000       0.002896
                                                         0.777500      -0.000502
                                                         0.352700       0.000139
                                                         0.143100      -0.000020

                          1       2    2s                2.278000       0.583593
                                                         0.777500       0.025180
                                                         0.352700      -0.002176
                                                         0.143100       0.000316

                          1       3    3s                2.278000       0.000000
                                                         0.777500       0.590113
                                                         0.352700       0.000000
                                                         0.143100       0.000000

                          1       4    4s                2.278000       0.000000
                                                         0.777500       0.000000
                                                         0.352700       0.326185
                                                         0.143100       0.000000

                          1       5    5s                2.278000      -0.461597
                                                         0.777500       0.159136
                                                         0.352700       0.220525
                                                         0.143100       0.047206

                          1       6    6s                2.278000       0.000000
                                                         0.777500       0.000000
                                                         0.352700       0.000000
                                                         0.143100       0.165821

                          2       1    1s                0.051900       0.077497

                          3       1    1px               3.919000       2.921669
                                                         1.765000       0.424220
                                                         0.720700       0.010214
                                                         0.283900       0.000346
                                                         0.106000       0.000029
                          3       1    1py               3.919000       2.921669
                                                         1.765000       0.424220
                                                         0.720700       0.010214
                                                         0.283900       0.000346
                                                         0.106000       0.000029
                          3       1    1pz               3.919000       2.921669
                                                         1.765000       0.424220
                                                         0.720700       0.010214
                                                         0.283900       0.000346
                                                         0.106000       0.000029

                          3       2    2px               3.919000       0.000000
                                                         1.765000       0.000000
                                                         0.720700       0.946528
                                                         0.283900       0.000000
                                                         0.106000       0.000000
                          3       2    2py               3.919000       0.000000
                                                         1.765000       0.000000
                                                         0.720700       0.946528
                                                         0.283900       0.000000
                                                         0.106000       0.000000
                          3       2    2pz               3.919000       0.000000
                                                         1.765000       0.000000
                                                         0.720700       0.946528
                                                         0.283900       0.000000
                                                         0.106000       0.000000

                          3       3    3px               3.919000      -0.962459
                                                         1.765000       0.111243
                                                         0.720700       0.364655
                                                         0.283900       0.149841
                                                         0.106000       0.019589
                          3       3    3py               3.919000      -0.962459
                                                         1.765000       0.111243
                                                         0.720700       0.364655
                                                         0.283900       0.149841
                                                         0.106000       0.019589
                          3       3    3pz               3.919000      -0.962459
                                                         1.765000       0.111243
                                                         0.720700       0.364655
                                                         0.283900       0.149841
                                                         0.106000       0.019589

                          3       4    4px               3.919000       0.000000
                                                         1.765000       0.000000
                                                         0.720700       0.000000
                                                         0.283900       0.295391
                                                         0.106000       0.000000
                          3       4    4py               3.919000       0.000000
                                                         1.765000       0.000000
                                                         0.720700       0.000000
                                                         0.283900       0.295391
                                                         0.106000       0.000000
                          3       4    4pz               3.919000       0.000000
                                                         1.765000       0.000000
                                                         0.720700       0.000000
                                                         0.283900       0.295391
                                                         0.106000       0.000000

                          3       5    5px               3.919000       0.000000
                                                         1.765000       0.000000
                                                         0.720700       0.000000
                                                         0.283900       0.000000
                                                         0.106000       0.086213
                          3       5    5py               3.919000       0.000000
                                                         1.765000       0.000000
                                                         0.720700       0.000000
                                                         0.283900       0.000000
                                                         0.106000       0.086213
                          3       5    5pz               3.919000       0.000000
                                                         1.765000       0.000000
                                                         0.720700       0.000000
                                                         0.283900       0.000000
                                                         0.106000       0.086213

                          4       1    1px               0.037600       0.023601
                          4       1    1py               0.037600       0.023601
                          4       1    1pz               0.037600       0.023601

                          5       1    1dx2              1.551000       3.547971
                                                         0.628000       0.000000
                                                         0.254000       0.000000
                          5       1    1dxy              1.551000       6.145267
                                                         0.628000       0.000000
                                                         0.254000       0.000000
                          5       1    1dxz              1.551000       6.145267
                                                         0.628000       0.000000
                                                         0.254000       0.000000
                          5       1    1dy2              1.551000       3.547971
                                                         0.628000       0.000000
                                                         0.254000       0.000000
                          5       1    1dyz              1.551000       6.145267
                                                         0.628000       0.000000
                                                         0.254000       0.000000
                          5       1    1dz2              1.551000       3.547971
                                                         0.628000       0.000000
                                                         0.254000       0.000000

                          5       2    2dx2              1.551000       0.000000
                                                         0.628000       0.729187
                                                         0.254000       0.000000
                          5       2    2dxy              1.551000       0.000000
                                                         0.628000       1.262989
                                                         0.254000       0.000000
                          5       2    2dxz              1.551000       0.000000
                                                         0.628000       1.262989
                                                         0.254000       0.000000
                          5       2    2dy2              1.551000       0.000000
                                                         0.628000       0.729187
                                                         0.254000       0.000000
                          5       2    2dyz              1.551000       0.000000
                                                         0.628000       1.262989
                                                         0.254000       0.000000
                          5       2    2dz2              1.551000       0.000000
                                                         0.628000       0.729187
                                                         0.254000       0.000000

                          5       3    3dx2              1.551000       0.000000
                                                         0.628000       0.000000
                                                         0.254000       0.149578
                          5       3    3dxy              1.551000       0.000000
                                                         0.628000       0.000000
                                                         0.254000       0.259077
                          5       3    3dxz              1.551000       0.000000
                                                         0.628000       0.000000
                                                         0.254000       0.259077
                          5       3    3dy2              1.551000       0.000000
                                                         0.628000       0.000000
                                                         0.254000       0.149578
                          5       3    3dyz              1.551000       0.000000
                                                         0.628000       0.000000
                                                         0.254000       0.259077
                          5       3    3dz2              1.551000       0.000000
                                                         0.628000       0.000000
                                                         0.254000       0.149578

                          6       1    1dx2              0.095200       0.026855
                          6       1    1dxy              0.095200       0.046514
                          6       1    1dxz              0.095200       0.046514
                          6       1    1dy2              0.095200       0.026855
                          6       1    1dyz              0.095200       0.046514
                          6       1    1dz2              0.095200       0.026855

                          7       1    1fx3              1.089000       1.783476
                                                         0.423000       0.000000
                          7       1    1fx2y             1.089000       3.987973
                                                         0.423000       0.000000
                          7       1    1fx2z             1.089000       3.987973
                                                         0.423000       0.000000
                          7       1    1fxy2             1.089000       3.987973
                                                         0.423000       0.000000
                          7       1    1fxyz             1.089000       6.907371
                                                         0.423000       0.000000
                          7       1    1fxz2             1.089000       3.987973
                                                         0.423000       0.000000
                          7       1    1fy3              1.089000       1.783476
                                                         0.423000       0.000000
                          7       1    1fy2z             1.089000       3.987973
                                                         0.423000       0.000000
                          7       1    1fyz2             1.089000       3.987973
                                                         0.423000       0.000000
                          7       1    1fz3              1.089000       1.783476
                                                         0.423000       0.000000

                          7       2    2fx3              1.089000       0.000000
                                                         0.423000       0.212432
                          7       2    2fx2y             1.089000       0.000000
                                                         0.423000       0.475013
                          7       2    2fx2z             1.089000       0.000000
                                                         0.423000       0.475013
                          7       2    2fxy2             1.089000       0.000000
                                                         0.423000       0.475013
                          7       2    2fxyz             1.089000       0.000000
                                                         0.423000       0.822746
                          7       2    2fxz2             1.089000       0.000000
                                                         0.423000       0.475013
                          7       2    2fy3              1.089000       0.000000
                                                         0.423000       0.212432
                          7       2    2fy2z             1.089000       0.000000
                                                         0.423000       0.475013
                          7       2    2fyz2             1.089000       0.000000
                                                         0.423000       0.475013
                          7       2    2fz3              1.089000       0.000000
                                                         0.423000       0.212432

                          8       1    1fx3              0.217000       0.047314
                          8       1    1fx2y             0.217000       0.105797
                          8       1    1fx2z             0.217000       0.105797
                          8       1    1fxy2             0.217000       0.105797
                          8       1    1fxyz             0.217000       0.183246
                          8       1    1fxz2             0.217000       0.105797
                          8       1    1fy3              0.217000       0.047314
                          8       1    1fy2z             0.217000       0.105797
                          8       1    1fyz2             0.217000       0.105797
                          8       1    1fz3              0.217000       0.047314

                          9       1    1gx4              0.827000       0.660048
                          9       1    1gx3y             0.827000       1.746323
                          9       1    1gx3z             0.827000       1.746323
                          9       1    1gx2y2            0.827000       2.254493
                          9       1    1gx2yz            0.827000       3.904897
                          9       1    1gx2z2            0.827000       2.254493
                          9       1    1gxy3             0.827000       1.746323
                          9       1    1gxy2z            0.827000       3.904897
                          9       1    1gxyz2            0.827000       3.904897
                          9       1    1gxz3             0.827000       1.746323
                          9       1    1gy4              0.827000       0.660048
                          9       1    1gy3z             0.827000       1.746323
                          9       1    1gy2z2            0.827000       2.254493
                          9       1    1gyz3             0.827000       1.746323
                          9       1    1gz4              0.827000       0.660048

                         10       1    1gx4              0.378000       0.076655
                         10       1    1gx3y             0.378000       0.202809
                         10       1    1gx3z             0.378000       0.202809
                         10       1    1gx2y2            0.378000       0.261825
                         10       1    1gx2yz            0.378000       0.453494
                         10       1    1gx2z2            0.378000       0.261825
                         10       1    1gxy3             0.378000       0.202809
                         10       1    1gxy2z            0.378000       0.453494
                         10       1    1gxyz2            0.378000       0.453494
                         10       1    1gxz3             0.378000       0.202809
                         10       1    1gy4              0.378000       0.076655
                         10       1    1gy3z             0.378000       0.202809
                         10       1    1gy2z2            0.378000       0.261825
                         10       1    1gyz3             0.378000       0.202809
                         10       1    1gz4              0.378000       0.076655

     AE Potential information for                                            ALL

       Description:                                       All-electron potential
                                          Krack, Parrinello, PCCP 2, 2105 (2000)

       Gaussian exponent of the core charge distribution:               2.974420
       Electronic configuration (s p d ...):                           6  11   0


 MOLECULE KIND INFORMATION


 All atoms are their own molecule, skipping detailed information


 TOTAL NUMBERS AND MAXIMUM NUMBERS

  Total number of            - Atomic kinds:                                   1
                             - Atoms:                                          2
                             - Shell sets:                                    20
                             - Shells:                                        44
                             - Primitive Cartesian functions:                 76
                             - Cartesian basis functions:                    218
                             - Spherical basis functions:                    168

  Maximum angular momentum of the orbital basis functions:                     4


 MODULE QUICKSTEP: ATOMIC COORDINATES IN ANGSTROM

   Atom Kind Element         X             Y             Z       Z(eff)     Mass
      1    1 Cl   17      3.003497      4.000002      4.000004  17.0000  35.4530
      2    1 Cl   17      4.996503      3.999998      3.999996  17.0000  35.4530



 SCF PARAMETERS         Density guess:                                    ATOMIC
                        --------------------------------------------------------
                        max_scf:                                              20
                        max_scf_history:                                       0
                        max_diis:                                              4
                        --------------------------------------------------------
                        eps_scf:                                        1.00E-07
                        eps_scf_history:                                0.00E+00
                        eps_diis:                                       1.00E-01
                        eps_eigval:                                     1.00E-05
                        --------------------------------------------------------
                        level_shift [a.u.]:                             0.000000
                        --------------------------------------------------------
                        Outer loop SCF in use 
                        No variables optimised in outer loop
                        eps_scf                                         1.00E-07
                        max_scf                                               50
                        No outer loop optimization
                        step_size                                       5.00E-01

 PW_GRID| Information for grid number                                          1
 PW_GRID| Grid distributed over                                   128 processors
 PW_GRID| Real space group dimensions                                   128    1
 PW_GRID| the grid is blocked:                                                NO
 PW_GRID| Cutoff [a.u.]                                                   1200.0
 PW_GRID| spherical cutoff:                                                   NO
 PW_GRID|   Bounds   1           -120     119                Points:         240
 PW_GRID|   Bounds   2           -120     119                Points:         240
 PW_GRID|   Bounds   3           -120     119                Points:         240
 PW_GRID| Volume element (a.u.^3)  0.2499E-03     Volume (a.u.^3)      3455.1473
 PW_GRID| Grid span                                                    FULLSPACE
 PW_GRID|   Distribution                         Average         Max         Min
 PW_GRID|   G-Vectors                           108000.0      108000      108000
 PW_GRID|   G-Rays                                 450.0         450         450
 PW_GRID|   Real Space Points                   108000.0      115200       57600

 PW_GRID| Information for grid number                                          2
 PW_GRID| Number of the reference grid                                         1
 PW_GRID| Grid distributed over                                   128 processors
 PW_GRID| Real space group dimensions                                   128    1
 PW_GRID| the grid is blocked:                                                NO
 PW_GRID| Cutoff [a.u.]                                                    600.0
 PW_GRID| spherical cutoff:                                                   NO
 PW_GRID|   Bounds   1            -90      89                Points:         180
 PW_GRID|   Bounds   2            -90      89                Points:         180
 PW_GRID|   Bounds   3            -90      89                Points:         180
 PW_GRID| Volume element (a.u.^3)  0.5924E-03     Volume (a.u.^3)      3455.1473
 PW_GRID| Grid span                                                    FULLSPACE
 PW_GRID|   Distribution                         Average         Max         Min
 PW_GRID|   G-Vectors                            45562.5       45720       45360
 PW_GRID|   G-Rays                                 253.1         254         252
 PW_GRID|   Real Space Points                    45562.5       64800       32400

 PW_GRID| Information for grid number                                          3
 PW_GRID| Number of the reference grid                                         2
 PW_GRID| Grid distributed over                                   128 processors
 PW_GRID| Real space group dimensions                                     8   16
 PW_GRID| the grid is blocked:                                                NO
 PW_GRID| Cutoff [a.u.]                                                    200.0
 PW_GRID| spherical cutoff:                                                   NO
 PW_GRID|   Bounds   1            -50      49                Points:         100
 PW_GRID|   Bounds   2            -50      49                Points:         100
 PW_GRID|   Bounds   3            -50      49                Points:         100
 PW_GRID| Volume element (a.u.^3)  0.3455E-02     Volume (a.u.^3)      3455.1473
 PW_GRID| Grid span                                                    FULLSPACE
 PW_GRID|   Distribution                         Average         Max         Min
 PW_GRID|   G-Vectors                             7812.5        7900        7700
 PW_GRID|   G-Rays                                  78.1          79          77
 PW_GRID|   Real Space Points                     7812.5        9100        7200

 PW_GRID| Information for grid number                                          4
 PW_GRID| Number of the reference grid                                         2
 PW_GRID| Grid distributed over                                   128 processors
 PW_GRID| Real space group dimensions                                     8   16
 PW_GRID| the grid is blocked:                                                NO
 PW_GRID| Cutoff [a.u.]                                                     66.7
 PW_GRID| spherical cutoff:                                                   NO
 PW_GRID|   Bounds   1            -30      29                Points:          60
 PW_GRID|   Bounds   2            -30      29                Points:          60
 PW_GRID|   Bounds   3            -30      29                Points:          60
 PW_GRID| Volume element (a.u.^3)  0.1600E-01     Volume (a.u.^3)      3455.1473
 PW_GRID| Grid span                                                    FULLSPACE
 PW_GRID|   Distribution                         Average         Max         Min
 PW_GRID|   G-Vectors                             1687.5        1800        1620
 PW_GRID|   G-Rays                                  28.1          30          27
 PW_GRID|   Real Space Points                     1687.5        1920        1260

 PW_GRID| Information for grid number                                          5
 PW_GRID| Number of the reference grid                                         2
 PW_GRID| Grid distributed over                                   128 processors
 PW_GRID| Real space group dimensions                                     8   16
 PW_GRID| the grid is blocked:                                                NO
 PW_GRID| Cutoff [a.u.]                                                     22.2
 PW_GRID| spherical cutoff:                                                   NO
 PW_GRID|   Bounds   1            -18      17                Points:          36
 PW_GRID|   Bounds   2            -18      17                Points:          36
 PW_GRID|   Bounds   3            -18      17                Points:          36
 PW_GRID| Volume element (a.u.^3)  0.7406E-01     Volume (a.u.^3)      3455.1473
 PW_GRID| Grid span                                                    FULLSPACE
 PW_GRID|   Distribution                         Average         Max         Min
 PW_GRID|   G-Vectors                              364.5         396         324
 PW_GRID|   G-Rays                                  10.1          11           9
 PW_GRID|   Real Space Points                      364.5         540         288

 PW_GRID| Information for grid number                                          6
 PW_GRID| Number of the reference grid                                         2
 PW_GRID| Grid distributed over                                   128 processors
 PW_GRID| Real space group dimensions                                     8   16
 PW_GRID| the grid is blocked:                                                NO
 PW_GRID| Cutoff [a.u.]                                                      7.4
 PW_GRID| spherical cutoff:                                                   NO
 PW_GRID|   Bounds   1            -10       9                Points:          20
 PW_GRID|   Bounds   2            -10       9                Points:          20
[...]
 flops    84 x    23 x    84              5193216       0.0%    100.0%      0.0%
 flops   168 x    17 x    17             14759808       0.0%    100.0%      0.0%
 flops    84 x    32 x    84             28901376       0.0%    100.0%      0.0%
 flops   168 x    17 x    84             67173120       0.0%    100.0%      0.0%
 flops    17 x    17 x    84            206054688       0.0%    100.0%      0.0%
 flops    84 x    84 x    17            223830432       0.0%    100.0%      0.0%
 flops    84 x    17 x    84            796961088       0.0%    100.0%      0.0%
 flops inhomo. stacks                           0       0.0%      0.0%      0.0%
 flops total                         1.345478E+09       0.0%    100.0%      0.0%
 flops max/rank                    812.045362E+06       0.0%    100.0%      0.0%
 matmuls inhomo. stacks                         0       0.0%      0.0%      0.0%
 matmuls total                               9136       0.0%    100.0%      0.0%
 number of processed stacks                  7187       0.0%    100.0%      0.0%
 average stack size                                     0.0       1.3       0.0
 marketing flops                     1.450508E+09
 -------------------------------------------------------------------------------
 # multiplications                           1628
 max memory usage/rank             826.658816E+06
 # max total images/rank                        2
 # max 3D layers                                1
 # MPI messages exchanged                 6043136
 MPI messages size (bytes):
  total size                         3.086196E+09
  min size                           0.000000E+00
  max size                         112.896000E+03
  average size                     510.694519E+00
 MPI breakdown and total messages size (bytes):
             size <=      128             5975967                        0
       128 < size <=     8192                6894                 15938928
      8192 < size <=    32768               37595                525017472
     32768 < size <=   131072               22680               2545240320
    131072 < size <=  4194304                   0                        0
   4194304 < size <= 16777216                   0                        0
  16777216 < size                               0                        0
 -------------------------------------------------------------------------------

 *** WARNING in dbcsr_mm.F:291 :: Using a non-square number of MPI ranks ***
 *** might lead to poor performance. Used ranks: 128 Suggested: 121 256  ***

 -------------------------------------------------------------------------------
 -                                                                             -
 -                      DBCSR MESSAGE PASSING PERFORMANCE                      -
 -                                                                             -
 -------------------------------------------------------------------------------
 ROUTINE             CALLS      AVE VOLUME [Bytes]
 MP_Bcast                9                     12.
 MP_Allreduce         7152                      8.
 MP_Alltoall         19295                  40287.
 MP_ISend           101738                   2601.
 MP_IRecv           100912                   1743.
 -------------------------------------------------------------------------------

 -------------------------------------------------------------------------------
 -                                                                             -
 -                                DBM STATISTICS                               -
 -                                                                             -
 -------------------------------------------------------------------------------
    M  x    N  x    K                                          COUNT     PERCENT
 -------------------------------------------------------------------------------

 -------------------------------------------------------------------------------
 -                                                                             -
 -                                GRID STATISTICS                              -
 -                                                                             -
 -------------------------------------------------------------------------------
 LP    KERNEL             BACKEND                              COUNT     PERCENT
 3     collocate ortho    CPU                                  40482       8.73%
 3     integrate ortho    CPU                                  39780       8.58%
 2     collocate ortho    CPU                                  39444       8.50%
 2     integrate ortho    CPU                                  38760       8.36%
 4     collocate ortho    CPU                                  37368       8.06%
 4     integrate ortho    CPU                                  36720       7.92%
 1     collocate ortho    CPU                                  31140       6.71%
 1     integrate ortho    CPU                                  30600       6.60%
 2     collocate general  CPU                                  26112       5.63%
 2     integrate general  CPU                                  25600       5.52%
 5     collocate ortho    CPU                                  24912       5.37%
 5     integrate ortho    CPU                                  24480       5.28%
 0     collocate ortho    CPU                                  12975       2.80%
 6     collocate ortho    CPU                                  12975       2.80%
 0     integrate ortho    CPU                                  12750       2.75%
 6     integrate ortho    CPU                                  12750       2.75%
 7     collocate ortho    CPU                                   6228       1.34%
 7     integrate ortho    CPU                                   6120       1.32%
 8     collocate ortho    CPU                                   2076       0.45%
 8     integrate ortho    CPU                                   2040       0.44%
 0     collocate general  CPU                                    256       0.06%
 0     integrate general  CPU                                    256       0.06%
 -------------------------------------------------------------------------------

 MEMORY| Estimated peak process memory [MiB]                                 789

 -------------------------------------------------------------------------------
 ----                             MULTIGRID INFO                            ----
 -------------------------------------------------------------------------------
 count for grid        1:       15721115          cutoff [a.u.]          600.00
 count for grid        2:        1325208          cutoff [a.u.]          200.00
 count for grid        3:        1071212          cutoff [a.u.]           66.67
 count for grid        4:         454631          cutoff [a.u.]           22.22
 count for grid        5:          34602          cutoff [a.u.]            7.41
 total gridlevel count  :       18606768

 -------------------------------------------------------------------------------
 -                                                                             -
 -                         MESSAGE PASSING PERFORMANCE                         -
 -                                                                             -
 -------------------------------------------------------------------------------

 ROUTINE             CALLS      AVE VOLUME [Bytes]
 MP_Group                6
 MP_Bcast             1097                 237282.
 MP_Allreduce         7710                  49405.
 MP_Sync               781
 MP_Alltoall          4893                1575803.
 MP_SendRecv         87884                  23360.
 MP_ISendRecv        86360                  23360.
 MP_Wait            173323
 MP_comm_split          90
 MP_ISend            86135                 103117.
 MP_IRecv            88736                 100073.
 -------------------------------------------------------------------------------


 -------------------------------------------------------------------------------
 -                                                                             -
 -                           R E F E R E N C E S                               -
 -                                                                             -
 -------------------------------------------------------------------------------
 
 CP2K version 2024.1 (Development Version), the CP2K developers group (2024).
 CP2K is freely available from https://www.cp2k.org/ .

 Kuehne,Thomas D.; Iannuzzi,Marcella; Del Ben,Mauro;
 Rybkin,Vladimir V.; Seewald,Patrick; Stein,Frederick; Laino,Teodoro;
 Khaliullin,Rustam Z.; Schuett,Ole; Schiffmann,Florian; Golze,Dorothea;
 Wilhelm,Jan; Chulkov,Sergey; Bani-Hashemian,Mohammad Hossein;
 Weber,Valery; Borstnik,Urban; Taillefumier,Mathieu;
 Jakobovits,Alice Shoshana; Lazzaro,Alfio; Pabst,Hans; Mueller,Tiziano;
 Schade,Robert; Guidon,Manuel; Andermatt,Samuel; Holmberg,Nico;
 Schenter,Gregory K.; Hehn,Anna; Bussy,Augustin; Belleflamme,Fabian;
 Tabacchi,Gloria; Gloess,Andreas; Lass,Michael; Bethune,Iain;
 Mundy,Christopher J.; Plessl,Christian; Watkins,Matt;
 VandeVondele,Joost; Krack,Matthias; Hutter,Juerg. 
 The Journal of Chemical Physics, 152 (19), (2020). 
 CP2K: An electronic structure and molecular dynamics software package -
 Quickstep: Efficient and accurate electronic structure calculations.
 https://doi.org/10.1063/5.0007045

 Schuett, Ole; Messmer, Peter; Hutter, Juerg; VandeVondele, Joost. 
 Electronic Structure Calculations on Graphics Processing Units, John
 Wiley & Sons, Ltd, 173-190 (2016). 
 GPU-Accelerated Sparse Matrix-Matrix Multiplication for
 Linear Scaling Density Functional Theory.
 https://doi.org/10.1002/9781118670712.ch8

 Heinecke, A; Henry, G; Hutchinson, M; Pabst, H. 
 Proceedings of Intl. Supercomputing Conference, 981-991 (2016). 
 LIBXSMM: Accelerating Small Matrix Multiplications
 by Runtime Code Generation.
 https://doi.org/10.1109/SC.2016.83

 Borstnik, U; VandeVondele, J; Weber, V; Hutter, J. 
 PARALLEL COMPUTING, 40 (5-6), 47-58 (2014). 
 Sparse matrix multiplication: The distributed block-compressed sparse
 row library.
 https://doi.org/10.1016/j.parco.2014.03.012

 Hutter, J; Iannuzzi, M; Schiffmann, F; VandeVondele, J. 
 WIREs Comput Mol Sci., 4 (1), 15-25 (2014). 
 CP2K: atomistic simulations of condensed matter systems.
 https://doi.org/10.1002/wcms.1159

 Frigo, M; Johnson, SG. 
 PROCEEDINGS OF THE IEEE, 93 (2), 216-231 (2005). 
 The design and implementation of FFTW3.
 https://doi.org/10.1109/JPROC.2004.840301

 Iannuzzi, M; Chassaing, T; Wallman, T; Hutter, J. 
 CHIMIA, 59 (7-8), 499-503 (2005). 
 Ground and excited state density functional calculations with the
 Gaussian and augmented-plane-wave method.
 https://doi.org/10.2533/000942905777676164

 VandeVondele, J; Hutter, J. 
 JOURNAL OF CHEMICAL PHYSICS, 118 (10), 4365-4369 (2003). 
 An efficient orbital transformation method for electronic structure
 calculations.
 https://doi.org/10.1063/1.1543154

 Martin,Richard L.. 
 The Journal of Chemical Physics, 118 (11), 4775-4777 (2003). 
 Natural transition orbitals.
 https://doi.org/10.1063/1.1558471

 Lippert, G; Hutter, J; Parrinello, M. 
 THEORETICAL CHEMISTRY ACCOUNTS, 103 (2), 124-140 (1999). 
 The Gaussian and augmented-plane-wave density functional method for ab
 initio molecular dynamics simulations.
 https://doi.org/10.1007/s002140050523

 Krack, M; Parrinello, M. 
 PHYSICAL CHEMISTRY CHEMICAL PHYSICS, 2 (10), 2105-2112 (2000). 
 All-electron ab-initio molecular dynamics.
 https://doi.org/10.1039/b001167n

 Martyna, GJ; Tuckerman, ME. 
 JOURNAL OF CHEMICAL PHYSICS, 110 (6), 2810-2821 (1999). 
 A reciprocal space based method for treating long range interactions in
 ab initio and force-field-based calculations in clusters.
 https://doi.org/10.1063/1.477923

 Perdew, JP; Burke, K; Ernzerhof, M. 
 PHYSICAL REVIEW LETTERS, 77 (18), 3865-3868 (1996). 
 Generalized gradient approximation made simple.
 https://doi.org/10.1103/PhysRevLett.77.3865


 -------------------------------------------------------------------------------
 -                                                                             -
 -                                T I M I N G                                  -
 -                                                                             -
 -------------------------------------------------------------------------------
 SUBROUTINE                       CALLS  ASD         SELF TIME        TOTAL TIME
                                MAXIMUM       AVERAGE  MAXIMUM  AVERAGE  MAXIMUM
 CP2K                                 1  1.0    0.106    0.232 2789.498 2789.504
 qs_energies                          1  2.0    0.001    0.013 2788.054 2788.071
 qs_energies_properties               1  3.0    0.000    0.000 1982.266 1982.289
 tddfpt                               1  4.0    0.000    0.013 1982.266 1982.289
 tddfpt_soc_energies                  1  5.0    0.000    0.000 1974.299 1974.320
 tddfpt_energies                      2  6.0    0.001    0.004 1920.973 1920.984
 tddfpt_davidson_solver               4  7.0    0.007    0.020 1811.821 1811.839
 tddfpt_compute_Aop_evects           14  8.0    0.000    0.000 1336.701 1336.804
 dbcsr_multiply_generic            1628 10.7    0.148    0.272 1137.120 1147.230
 fhxc_kernel                         14  9.0    0.004    0.015 1136.456 1136.568
 scf_env_do_scf                       1  3.0    0.000    0.011  795.956  795.973
 cp_dbcsr_sm_fm_multiply            606  9.3    0.008    0.018  785.790  792.075
 scf_env_do_scf_inner_loop           30  4.0    0.001    0.012  757.097  757.116
 multiply_cannon                   1628 11.7    4.460    5.182  637.883  659.518
 multiply_cannon_loop              1628 12.7    0.851    1.109  570.295  590.361
 qs_scf_new_mos                      30  5.0    0.000    0.000  581.725  582.810
 qs_scf_loop_do_ot                   30  6.0    0.000    0.000  581.725  582.810
 ot_scf_mini                         30  7.0    0.000    0.000  556.151  557.270
 multiply_cannon_multrec          26048 13.7  443.204  502.816  443.210  502.820
 pw_transfer                       3805 12.1    0.106    0.142  487.724  489.398
 fft_wrap_pw1pw2                   3503 13.2    0.009    0.021  487.234  488.884
 fft3d_ps                          3503 15.2    8.494   10.500  485.525  487.145
 ot_mini                             30  8.0    0.002    0.012  381.222  382.134
 dbcsr_complete_redistribute       1768 11.4    0.080    0.343  373.348  379.137
 tddfpt_orthonormalize_psi1_psi      16  7.9    0.006    0.025  362.540  364.945
 cp_dbcsr_sm_fm_multiply_core       606 10.3    0.001    0.001  348.976  356.424
 copy_dbcsr_to_fm                   691 10.2    0.006    0.017  319.711  326.510
 qs_ot_get_derivative                30  9.0    0.000    0.000  317.463  318.463
 mp_sum_l                          7161 11.1  307.665  317.957  307.665  317.957
 qs_rho_update_rho_low              173  9.1    0.005    0.021  309.598  311.742
 mp_waitall_1                    274305 14.5  177.342  280.691  177.342  280.691
 mp_alltoall_z22v                  3503 17.2  275.207  279.030  275.207  279.030
 cp_dbcsr_plus_fm_fm_t_native       141 10.0    0.002    0.012  275.355  277.521
 calculate_rho_elec                 173 10.1    0.023    0.042  271.678  273.931
 fft_wrap_pw1pw2_600               2130 14.3    0.175    0.211  247.674  249.622
 integrate_v_rspace                 170  9.8    0.003    0.028  233.639  237.515
 density_rs2pw                      173 11.1    0.006    0.023  232.774  234.517
 potential_pw2rs                    170 10.8    0.006    0.016  224.780  225.195
 qs_ot_get_derivative_diag           27 10.0    0.000    0.000  221.958  223.204
 copy_fm_to_dbcsr                  1077 10.6    0.003    0.014  216.603  223.123
 mp_alltoall_i22                   2489 12.4  190.752  202.297  190.752  202.297
 tddfpt_apply_energy_diff            14  9.0    0.000    0.001  200.245  200.326
 mp_alltoall_d11v                  7810 12.6  172.961  193.363  172.961  193.363
 mp_sum_dv                         4599 10.3  174.864  179.773  174.864  179.773
 multiply_cannon_metrocomm3       26048 13.7    0.043    0.079  103.192  178.007
 dbcsr_desymmetrize_deep            692 11.2    0.012    0.103  162.501  168.823
 cp_fm_trace_a1b1t1_aa             3880  9.0    8.390   11.764  161.347  163.206
 mp_alltoall_z11v                  1029 17.0  154.345  155.860  154.345  155.860
 make_m2s                          3256 11.7    0.030    0.040  134.155  143.009
 xc_pw_derive                      1239 11.7    0.005    0.016  140.748  141.729
 make_images                       3256 12.7    9.091    9.911  133.398  140.233
 tddfpt_apply_xc_analytic           140 10.0    0.059    0.097  135.819  136.227
 x_to_yz                           1172 15.9    3.426    4.165  128.214  129.407
 tddfpt_compute_residual_vects       10  8.0    0.000    0.001  128.911  129.254
 qs_ks_update_qs_env                 32  5.0    0.000    0.000  128.280  129.102
 rebuild_ks_matrix                   30  6.0    0.002    0.015  128.201  129.028
 qs_ks_build_kohn_sham_matrix        30  7.0    0.009    0.055  128.199  129.026
 make_images_sizes                 3256 13.7    0.004    0.013  123.352  126.278
 mp_alltoall_i44                   3256 14.7  123.348  126.276  123.348  126.276
 qs_ot_get_p                         32  7.9    0.000    0.000  114.371  115.118
 yz_to_x                            959 16.8    0.185    0.273  111.938  113.354
 transfer_rs2pw                     968 12.0    0.005    0.037  101.340  103.083
 xz_to_yz                           692 16.1    1.751    2.077   98.360   99.941
 transfer_pw2rs                     951 11.7    0.004    0.018   98.387   99.252
 yz_to_xz                           680 15.8    1.668    1.981   97.400   98.779
 mp_alltoall_i11v                  6083 12.4   95.599   98.183   95.599   98.183
 mp_waitany                       78768 13.7   93.465   94.980   93.465   94.980
 xc_pw_divergence                   170 11.6    0.002    0.013   80.109   80.938
 fft_wrap_pw1pw2_70                 343 14.0    0.003    0.004   79.842   80.615
 mp_cart_sub                       1392 12.2   71.546   74.997   71.546   74.997
 qs_ot_p2m_diag                      29  9.0    0.003    0.013   70.094   71.081
 tddfpt_print_nto_analysis            2  7.0    0.002    0.011   69.137   69.423
 transfer_rs2pw_600                 276 12.8   10.370   11.517   67.603   69.365
 xc_calc_2nd_deriv_analytical       420 11.0    1.760    2.407   67.396   67.776
 mp_allgather_i34                  1628 12.7   61.925   64.104   61.925   64.104
 mp_sum_dm                         1009 11.0   62.645   63.417   62.645   63.417
 fft_wrap_pw1pw2_30                 343 14.0    0.002    0.002   62.046   62.697
 prepare_gapw_den                   172  9.6    0.004    0.009   62.317   62.554
 ot_diis_step                        30  9.0    0.003    0.023   58.858   58.985
 multiply_cannon_metrocomm1       26048 13.7    0.022    0.042   22.554   58.186
 mp_sum_d                          1586  8.1   54.158   56.642   54.158   56.642
 transfer_pw2rs_600                 271 12.5   11.799   13.011   54.622   55.797
 -------------------------------------------------------------------------------

 The number of warnings for this run is : 1
 
 -------------------------------------------------------------------------------
  **** **** ******  **  PROGRAM ENDED AT                 2024-01-12 15:37:42.649
 ***** ** ***  *** **   PROGRAM RAN ON                               nesh-srp100
 **    ****   ******    PROGRAM RAN BY                                  suphc355
 ***** **    ** ** **   PROGRAM PROCESS ID                               2628304
  **** **  *******  **  PROGRAM STOPPED IN /gxfs_work/cau/suphc355/homologes/X2/
                                           AE/Cl
