 DBCSR| CPU Multiplication driver                                           XSMM (U)
 DBCSR| Multrec recursion limit                                              512 (U)
 DBCSR| Multiplication stack size                                           1000 (D)
 DBCSR| Maximum elements for images                                    UNLIMITED (U)
 DBCSR| Multiplicative factor virtual images                                   1 (U)
 DBCSR| Use multiplication densification                                       T (D)
 DBCSR| Multiplication size stacks                                             3 (U)
 DBCSR| Use memory pool for CPU allocation                                     F (U)
 DBCSR| Number of 3D layers                                               SINGLE (U)
 DBCSR| Use MPI memory allocation                                              F (U)
 DBCSR| Use RMA algorithm                                                      F (U)
 DBCSR| Use Communication thread                                               T (U)
 DBCSR| Communication thread load                                             83 (D)
 DBCSR| MPI: My process id                                                     0
 DBCSR| MPI: Number of processes                                             256
 DBCSR| OMP: Current number of threads                                         2
 DBCSR| OMP: Max number of threads                                             2
 DBCSR| Split modifier for TAS multiplication algorithm                  1.0E+00 (U)


  **** **** ******  **  PROGRAM STARTED AT               2023-10-25 16:48:59.426
 ***** ** ***  *** **   PROGRAM STARTED ON                                  n142
 **    ****   ******    PROGRAM STARTED BY                              suphc355
 ***** **    ** ** **   PROGRAM PROCESS ID                               3325047
  **** **  *******  **  PROGRAM STARTED IN /work_beegfs/suphc355/benchmark/pbe0_
                                           bm_final/defuse/furan

 CP2K| version string:                 CP2K version 2023.2 (Development Version)
 CP2K| source code revision number:                                  git:416f200
 CP2K| cp2kflags: omp libint fftw3 libxc elpa parallel mpi_f08 scalapack cosma x
 CP2K|            smm spglib sirius libvori libbqb libvdwxc
 CP2K| is freely available from                            https://www.cp2k.org/
 CP2K| Program compiled at                          Do 7. Sep 13:52:13 CEST 2023
 CP2K| Program compiled on                                           caucluster2
 CP2K| Program compiled for                                                local
 CP2K| Data directory path                  /zfshome/suphc355/software/cp2k/data
 CP2K| Input file name                                                   les.inp
 
 GLOBAL| Force Environment number                                              1
 GLOBAL| Basis set file name                                            ../basis
 GLOBAL| Potential file name                                           POTENTIAL
 GLOBAL| MM Potential file name                                     MM_POTENTIAL
 GLOBAL| Coordinate file name                                            lit.xyz
 GLOBAL| Method name                                                        CP2K
 GLOBAL| Project name                                                  furan_les
 GLOBAL| Run type                                                         ENERGY
 GLOBAL| FFT library                                                       FFTW3
 GLOBAL| Diagonalization library                                            ELPA
 GLOBAL| DGEMM library                                                      BLAS
 GLOBAL| Minimum number of eigenvectors for ELPA usage                        16
 GLOBAL| Orthonormality check for eigenvectors                          DISABLED
 GLOBAL| Matrix multiplication library                                     COSMA
 GLOBAL| All-to-all communication in single precision                          F
 GLOBAL| FFTs using library dependent lengths                                  F
 GLOBAL| Grid backend                                                       AUTO
 GLOBAL| Global print level                                               MEDIUM
 GLOBAL| MPI I/O enabled                                                       T
 GLOBAL| Total number of message passing processes                           256
 GLOBAL| Number of threads for this process                                    2
 GLOBAL| This output is from process                                           0
 GLOBAL| Stack size for threads created by OpenMP (OMP_STACKSIZE)        default
 GLOBAL| CPU model name                          AMD EPYC 7313 16-Core Processor
 GLOBAL| CPUID                                                              1002

 MEMORY| system memory details [Kb]
 MEMORY|                        rank 0           min           max       average
 MEMORY| MemTotal            528224476     528224476     528224476     528224476
 MEMORY| MemFree             500074288     492102788     513093144     500043886
 MEMORY| Buffers               2499312        935480       4330600       2146775
 MEMORY| Cached                4823564       3241824      12571220       8100751
 MEMORY| Slab                  8127336       1073696      10777364       5945014
 MEMORY| SReclaimable           824204        531068       1091144        820521
 MEMORY| MemLikelyFree       508221368     504582608     517801516     511111933


 *** Fundamental physical constants (SI units) ***

 *** Literature: B. J. Mohr and B. N. Taylor,
 ***             CODATA recommended values of the fundamental physical
 ***             constants: 2006, Web Version 5.1
 ***             http://physics.nist.gov/constants

 Speed of light in vacuum [m/s]                             2.99792458000000E+08
 Magnetic constant or permeability of vacuum [N/A**2]       1.25663706143592E-06
 Electric constant or permittivity of vacuum [F/m]          8.85418781762039E-12
 Planck constant (h) [J*s]                                  6.62606896000000E-34
 Planck constant (h-bar) [J*s]                              1.05457162825177E-34
 Elementary charge [C]                                      1.60217648700000E-19
 Electron mass [kg]                                         9.10938215000000E-31
 Electron g factor [ ]                                     -2.00231930436220E+00
 Proton mass [kg]                                           1.67262163700000E-27
 Fine-structure constant                                    7.29735253760000E-03
 Rydberg constant [1/m]                                     1.09737315685270E+07
 Avogadro constant [1/mol]                                  6.02214179000000E+23
 Boltzmann constant [J/K]                                   1.38065040000000E-23
 Atomic mass unit [kg]                                      1.66053878200000E-27
 Bohr radius [m]                                            5.29177208590000E-11

 *** Conversion factors ***

 [u] -> [a.u.]                                              1.82288848426455E+03
 [Angstrom] -> [Bohr] = [a.u.]                              1.88972613288564E+00
 [a.u.] = [Bohr] -> [Angstrom]                              5.29177208590000E-01
 [a.u.] -> [s]                                              2.41888432650478E-17
 [a.u.] -> [fs]                                             2.41888432650478E-02
 [a.u.] -> [J]                                              4.35974393937059E-18
 [a.u.] -> [N]                                              8.23872205491840E-08
 [a.u.] -> [K]                                              3.15774647902944E+05
 [a.u.] -> [kJ/mol]                                         2.62549961709828E+03
 [a.u.] -> [kcal/mol]                                       6.27509468713739E+02
 [a.u.] -> [Pa]                                             2.94210107994716E+13
 [a.u.] -> [bar]                                            2.94210107994716E+08
 [a.u.] -> [atm]                                            2.90362800883016E+08
 [a.u.] -> [eV]                                             2.72113838565563E+01
 [a.u.] -> [Hz]                                             6.57968392072181E+15
 [a.u.] -> [1/cm] (wave numbers)                            2.19474631370540E+05
 [a.u./Bohr**2] -> [1/cm]                                   5.14048714338585E+03
 

 CELL_TOP| Volume [angstrom^3]:                                      1000.000000
 CELL_TOP| Vector a [angstrom    10.000     0.000     0.000   |a| =    10.000000
 CELL_TOP| Vector b [angstrom     0.000    10.000     0.000   |b| =    10.000000
 CELL_TOP| Vector c [angstrom     0.000     0.000    10.000   |c| =    10.000000
 CELL_TOP| Angle (b,c), alpha [degree]:                                90.000000
 CELL_TOP| Angle (a,c), beta  [degree]:                                90.000000
 CELL_TOP| Angle (a,b), gamma [degree]:                                90.000000
 CELL_TOP| Numerically orthorhombic:                                         YES
 CELL_TOP| Periodicity                                                      NONE
 
 GENERATE|  Preliminary Number of Bonds generated:                             0
 GENERATE|  Achieved consistency in connectivity generation.

 CELL| Volume [angstrom^3]:                                          1000.000000
 CELL| Vector a [angstrom]:      10.000     0.000     0.000   |a| =    10.000000
 CELL| Vector b [angstrom]:       0.000    10.000     0.000   |b| =    10.000000
 CELL| Vector c [angstrom]:       0.000     0.000    10.000   |c| =    10.000000
 CELL| Angle (b,c), alpha [degree]:                                    90.000000
 CELL| Angle (a,c), beta  [degree]:                                    90.000000
 CELL| Angle (a,b), gamma [degree]:                                    90.000000
 CELL| Numerically orthorhombic:                                             YES
 CELL| Periodicity                                                          NONE

 CELL_REF| Volume [angstrom^3]:                                      1000.000000
 CELL_REF| Vector a [angstrom    10.000     0.000     0.000   |a| =    10.000000
 CELL_REF| Vector b [angstrom     0.000    10.000     0.000   |b| =    10.000000
 CELL_REF| Vector c [angstrom     0.000     0.000    10.000   |c| =    10.000000
 CELL_REF| Angle (b,c), alpha [degree]:                                90.000000
 CELL_REF| Angle (a,c), beta  [degree]:                                90.000000
 CELL_REF| Angle (a,b), gamma [degree]:                                90.000000
 CELL_REF| Numerically orthorhombic:                                         YES
 CELL_REF| Periodicity                                                      NONE

 *******************************************************************************
 *******************************************************************************
 **                                                                           **
 **     #####                         ##              ##                      **
 **    ##   ##            ##          ##              ##                      **
 **   ##     ##                       ##            ######                    **
 **   ##     ##  ##   ##  ##   #####  ##  ##   ####   ##    #####    #####    **
 **   ##     ##  ##   ##  ##  ##      ## ##   ##      ##   ##   ##  ##   ##   **
 **   ##  ## ##  ##   ##  ##  ##      ####     ###    ##   ######   ######    **
 **    ##  ###   ##   ##  ##  ##      ## ##      ##   ##   ##       ##        **
 **     #######   #####   ##   #####  ##  ##  ####    ##    #####   ##        **
 **           ##                                                    ##        **
 **                                                                           **
 **                                                ... make the atoms dance   **
 **                                                                           **
 **            Copyright (C) by CP2K developers group (2000-2023)             **
 **                      J. Chem. Phys. 152, 194103 (2020)                    **
 **                                                                           **
 *******************************************************************************

 DFT| Spin restricted Kohn-Sham (RKS) calculation                            RKS
 DFT| Multiplicity                                                             1
 DFT| Number of spin states                                                    1
 DFT| Charge                                                                   0
 DFT| Self-interaction correction (SIC)                                       NO
 DFT| Cutoffs: density                                              1.000000E-10
 DFT|          gradient                                             1.000000E-10
 DFT|          tau                                                  1.000000E-10
 DFT|          cutoff_smoothing_range                               0.000000E+00
 DFT| XC density smoothing                                                  NONE
 DFT| XC derivatives                                                          PW

 FUNCTIONAL| PBE:
 FUNCTIONAL| J.P.Perdew, K.Burke, M.Ernzerhof, Phys. Rev. Letter, vol. 77, n 18,
 FUNCTIONAL|  pp. 3865-3868, (1996)sx=0.750sc=1.000{spin unpolarized}           


 QS| Method:                                                                GAPW
 QS| Density plane wave grid type                        NON-SPHERICAL FULLSPACE
 QS| Number of grid levels:                                                    5
 QS| Density cutoff [a.u.]:                                               2000.0
 QS| Multi grid cutoff [a.u.]: 1) grid level                              2000.0
 QS|                           2) grid level                               666.7
 QS|                           3) grid level                               222.2
 QS|                           4) grid level                                74.1
 QS|                           5) grid level                                24.7
 QS| Grid level progression factor:                                          3.0
 QS| Relative density cutoff [a.u.]:                                        40.0
 QS| Interaction thresholds: eps_pgf_orb:                                1.0E-30
 QS|                         eps_filter_matrix:                          0.0E+00
 QS|                         eps_core_charge:                            1.0E-17
 QS|                         eps_rho_gspace:                             1.0E-15
 QS|                         eps_rho_rspace:                             1.0E-15
 QS|                         eps_gvg_rspace:                             3.2E-08
 QS|                         eps_ppl:                                    1.0E-02
 QS|                         eps_ppnl:                                   3.2E-10
 QS| GAPW|      One center basis from orbital basis primitives
 QS| GAPW|                   eps_fit:                                    1.0E-04
 QS| GAPW|                   eps_iso:                                    1.0E-12
 QS| GAPW|                   eps_svd:                                    1.0E-08
 QS| GAPW|                   eps_cpc:                                    1.0E-15
 QS| GAPW|   atom-r-grid: quadrature:                                     GC_LOG
 QS| GAPW|      atom-s-grid:  max l :                                          6
 QS| GAPW|      max_l_rho0 :                                                   2


 ATOMIC KIND INFORMATION

  1. Atomic kind: O                                     Number of atoms:       1

     Orbital Basis Set                                                def2-TZVPD

       Number of orbital shell sets:                                          14
       Number of orbital shells:                                              14
       Number of primitive Cartesian functions:                               23
       Number of Cartesian basis functions:                                   46
       Number of spherical basis functions:                                   40
       Norm type:                                                              2

       Normalised Cartesian orbitals:

                        Set   Shell   Orbital            Exponent    Coefficient

                          1       1    1s            27032.382631       0.859858
                                                      4052.387139       1.605531
                                                       922.327227       2.745878
                                                       261.240710       4.298767
                                                        85.354641       5.879766
                                                        31.035035       6.316398

                          2       1    1s               12.260861       2.981215
                                                         4.998708       0.941956

                          3       1    1s                1.170311       0.801929

                          4       1    1s                0.464747       0.401165

                          5       1    1s                0.185045       0.201080

                          6       1    1s                0.070288       0.097291

                          7       1    1px              63.274955       3.057202
                                                        14.627049       3.384484
                                                         4.450122       2.947426
                                                         1.527580       1.711827
                          7       1    1py              63.274955       3.057202
                                                        14.627049       3.384484
                                                         4.450122       2.947426
                                                         1.527580       1.711827
                          7       1    1pz              63.274955       3.057202
                                                        14.627049       3.384484
                                                         4.450122       2.947426
                                                         1.527580       1.711827

                          8       1    1px               0.529351       0.643606
                          8       1    1py               0.529351       0.643606
                          8       1    1pz               0.529351       0.643606

                          9       1    1px               0.174784       0.161090
                          9       1    1py               0.174784       0.161090
                          9       1    1pz               0.174784       0.161090

                         10       1    1px               0.051113       0.034642
                         10       1    1py               0.051113       0.034642
                         10       1    1pz               0.051113       0.034642

                         11       1    1dx2              2.314000       7.145709
                         11       1    1dxy              2.314000      12.376731
                         11       1    1dxz              2.314000      12.376731
                         11       1    1dy2              2.314000       7.145709
                         11       1    1dyz              2.314000      12.376731
                         11       1    1dz2              2.314000       7.145709

                         12       1    1dx2              0.645000       0.764080
                         12       1    1dxy              0.645000       1.323426
                         12       1    1dxz              0.645000       1.323426
                         12       1    1dy2              0.645000       0.764080
                         12       1    1dyz              0.645000       1.323426
                         12       1    1dz2              0.645000       0.764080

                         13       1    1dx2              0.146965       0.057416
                         13       1    1dxy              0.146965       0.099447
                         13       1    1dxz              0.146965       0.099447
                         13       1    1dy2              0.146965       0.057416
                         13       1    1dyz              0.146965       0.099447
                         13       1    1dz2              0.146965       0.057416

                         14       1    1fx3              1.428000       3.281655
                         14       1    1fx2y             1.428000       7.338004
                         14       1    1fx2z             1.428000       7.338004
                         14       1    1fxy2             1.428000       7.338004
                         14       1    1fxyz             1.428000      12.709795
                         14       1    1fxz2             1.428000       7.338004
                         14       1    1fy3              1.428000       3.281655
                         14       1    1fy2z             1.428000       7.338004
                         14       1    1fyz2             1.428000       7.338004
                         14       1    1fz3              1.428000       3.281655

       Atomic covalent radius [Angstrom]:                                  0.730

       Atomic van der Waals radius [Angstrom]:                             1.520

     The atoms of this atomic kind are PAW atoms (GAPW):
       Hard Gaussian function radius:                                      1.512
       Rho0 radius:                                                        1.512
       Maximum GTO radius used for PAW projector construction:            24.566

     GAPW Soft Basis Set                                         def2-TZVPD_soft

       Number of orbital shell sets:                                          14
       Number of orbital shells:                                              14
       Number of primitive Cartesian functions:                               12
       Number of Cartesian basis functions:                                   46
       Number of spherical basis functions:                                   40
       Norm type:                                                              2

       Normalised Cartesian orbitals:

                        Set   Shell   Orbital            Exponent    Coefficient

                          1       1    1s         

                          2       1    1s         

                          3       1    1s                1.170311       0.801929

                          4       1    1s                0.464747       0.401165

                          5       1    1s                0.185045       0.201080

                          6       1    1s                0.070288       0.097291

                          7       1    1px               1.527580       1.711827
                          7       1    1py               1.527580       1.711827
                          7       1    1pz               1.527580       1.711827

                          8       1    1px               0.529351       0.643606
                          8       1    1py               0.529351       0.643606
                          8       1    1pz               0.529351       0.643606

                          9       1    1px               0.174784       0.161090
                          9       1    1py               0.174784       0.161090
                          9       1    1pz               0.174784       0.161090

                         10       1    1px               0.051113       0.034642
                         10       1    1py               0.051113       0.034642
                         10       1    1pz               0.051113       0.034642

                         11       1    1dx2              2.314000       7.145709
                         11       1    1dxy              2.314000      12.376731
                         11       1    1dxz              2.314000      12.376731
                         11       1    1dy2              2.314000       7.145709
                         11       1    1dyz              2.314000      12.376731
                         11       1    1dz2              2.314000       7.145709

                         12       1    1dx2              0.645000       0.764080
                         12       1    1dxy              0.645000       1.323426
                         12       1    1dxz              0.645000       1.323426
                         12       1    1dy2              0.645000       0.764080
                         12       1    1dyz              0.645000       1.323426
                         12       1    1dz2              0.645000       0.764080

                         13       1    1dx2              0.146965       0.057416
                         13       1    1dxy              0.146965       0.099447
                         13       1    1dxz              0.146965       0.099447
                         13       1    1dy2              0.146965       0.057416
                         13       1    1dyz              0.146965       0.099447
                         13       1    1dz2              0.146965       0.057416

                         14       1    1fx3              1.428000       3.281655
                         14       1    1fx2y             1.428000       7.338004
                         14       1    1fx2z             1.428000       7.338004
                         14       1    1fxy2             1.428000       7.338004
                         14       1    1fxyz             1.428000      12.709795
                         14       1    1fxz2             1.428000       7.338004
                         14       1    1fy3              1.428000       3.281655
                         14       1    1fy2z             1.428000       7.338004
                         14       1    1fyz2             1.428000       7.338004
                         14       1    1fz3              1.428000       3.281655

     AE Potential information for                                            ALL

       Description:                                       All-electron potential
                                          Krack, Parrinello, PCCP 2, 2105 (2000)

       Gaussian exponent of the core charge distribution:               8.154466
       Electronic configuration (s p d ...):                           4   4   0

  2. Atomic kind: C                                     Number of atoms:       4

     Orbital Basis Set                                                def2-TZVPD

       Number of orbital shell sets:                                          13
       Number of orbital shells:                                              13
       Number of primitive Cartesian functions:                               22
       Number of Cartesian basis functions:                                   43
       Number of spherical basis functions:                                   37
       Norm type:                                                              2

       Normalised Cartesian orbitals:

                        Set   Shell   Orbital            Exponent    Coefficient

                          1       1    1s            13575.349682       0.543591
                                                      2035.233368       1.014554
                                                       463.225624       1.731573
                                                       131.200196       2.691038
                                                        42.853016       3.604455
                                                        15.584186       3.702556

                          2       1    1s                6.206714       1.838354
                                                         2.576490       0.544758

                          3       1    1s                0.576963       0.471815

                          4       1    1s                0.229728       0.236494

                          5       1    1s                0.095164       0.122114

                          6       1    1s                0.048475       0.073629

                          7       1    1px              34.697232       1.359665
                                                         7.958262       1.451259
                                                         2.378083       1.270923
                                                         0.814332       0.802572
                          7       1    1py              34.697232       1.359665
                                                         7.958262       1.451259
                                                         2.378083       1.270923
                                                         0.814332       0.802572
                          7       1    1pz              34.697232       1.359665
                                                         7.958262       1.451259
                                                         2.378083       1.270923
                                                         0.814332       0.802572

                          8       1    1px               0.288875       0.301876
                          8       1    1py               0.288875       0.301876
                          8       1    1pz               0.288875       0.301876

                          9       1    1px               0.100568       0.080727
                          9       1    1py               0.100568       0.080727
                          9       1    1pz               0.100568       0.080727

                         10       1    1dx2              1.097000       1.935401
                         10       1    1dxy              1.097000       3.352214
                         10       1    1dxz              1.097000       3.352214
                         10       1    1dy2              1.097000       1.935401
                         10       1    1dyz              1.097000       3.352214
                         10       1    1dz2              1.097000       1.935401

                         11       1    1dx2              0.318000       0.221644
                         11       1    1dxy              0.318000       0.383899
                         11       1    1dxz              0.318000       0.383899
                         11       1    1dy2              0.318000       0.221644
                         11       1    1dyz              0.318000       0.383899
                         11       1    1dz2              0.318000       0.221644

                         12       1    1dx2              0.090985       0.024809
                         12       1    1dxy              0.090985       0.042970
                         12       1    1dxz              0.090985       0.042970
                         12       1    1dy2              0.090985       0.024809
                         12       1    1dyz              0.090985       0.042970
                         12       1    1dz2              0.090985       0.024809

                         13       1    1fx3              0.761000       0.796288
                         13       1    1fx2y             0.761000       1.780553
                         13       1    1fx2z             0.761000       1.780553
                         13       1    1fxy2             0.761000       1.780553
                         13       1    1fxyz             0.761000       3.084008
                         13       1    1fxz2             0.761000       1.780553
                         13       1    1fy3              0.761000       0.796288
                         13       1    1fy2z             0.761000       1.780553
                         13       1    1fyz2             0.761000       1.780553
                         13       1    1fz3              0.761000       0.796288

       Atomic covalent radius [Angstrom]:                                  0.770

       Atomic van der Waals radius [Angstrom]:                             1.700

     The atoms of this atomic kind are PAW atoms (GAPW):
       Hard Gaussian function radius:                                      1.512
       Rho0 radius:                                                        1.512
       Maximum GTO radius used for PAW projector construction:            24.566

     GAPW Soft Basis Set                                         def2-TZVPD_soft

       Number of orbital shell sets:                                          13
       Number of orbital shells:                                              13
       Number of primitive Cartesian functions:                               13
       Number of Cartesian basis functions:                                   43
       Number of spherical basis functions:                                   37
       Norm type:                                                              2

       Normalised Cartesian orbitals:

                        Set   Shell   Orbital            Exponent    Coefficient

                          1       1    1s         

                          2       1    1s                2.576490       0.544758

                          3       1    1s                0.576963       0.471815

                          4       1    1s                0.229728       0.236494

                          5       1    1s                0.095164       0.122114

                          6       1    1s                0.048475       0.073629

                          7       1    1px               2.378083       1.270923
                                                         0.814332       0.802572
                          7       1    1py               2.378083       1.270923
                                                         0.814332       0.802572
                          7       1    1pz               2.378083       1.270923
                                                         0.814332       0.802572

                          8       1    1px               0.288875       0.301876
                          8       1    1py               0.288875       0.301876
                          8       1    1pz               0.288875       0.301876

                          9       1    1px               0.100568       0.080727
                          9       1    1py               0.100568       0.080727
                          9       1    1pz               0.100568       0.080727

                         10       1    1dx2              1.097000       1.935401
                         10       1    1dxy              1.097000       3.352214
                         10       1    1dxz              1.097000       3.352214
                         10       1    1dy2              1.097000       1.935401
                         10       1    1dyz              1.097000       3.352214
                         10       1    1dz2              1.097000       1.935401

                         11       1    1dx2              0.318000       0.221644
                         11       1    1dxy              0.318000       0.383899
                         11       1    1dxz              0.318000       0.383899
                         11       1    1dy2              0.318000       0.221644
                         11       1    1dyz              0.318000       0.383899
                         11       1    1dz2              0.318000       0.221644

                         12       1    1dx2              0.090985       0.024809
                         12       1    1dxy              0.090985       0.042970
                         12       1    1dxz              0.090985       0.042970
                         12       1    1dy2              0.090985       0.024809
                         12       1    1dyz              0.090985       0.042970
                         12       1    1dz2              0.090985       0.024809

                         13       1    1fx3              0.761000       0.796288
                         13       1    1fx2y             0.761000       1.780553
                         13       1    1fx2z             0.761000       1.780553
                         13       1    1fxy2             0.761000       1.780553
                         13       1    1fxyz             0.761000       3.084008
                         13       1    1fxz2             0.761000       1.780553
                         13       1    1fy3              0.761000       0.796288
                         13       1    1fy2z             0.761000       1.780553
                         13       1    1fyz2             0.761000       1.780553
                         13       1    1fz3              0.761000       0.796288

     AE Potential information for                                            ALL

       Description:                                       All-electron potential
                                          Krack, Parrinello, PCCP 2, 2105 (2000)

       Gaussian exponent of the core charge distribution:               4.109048
       Electronic configuration (s p d ...):                           4   2   0

  3. Atomic kind: H                                     Number of atoms:       4

     Orbital Basis Set                                                def2-TZVPD

       Number of orbital shell sets:                                           5
       Number of orbital shells:                                               5
       Number of primitive Cartesian functions:                                7
       Number of Cartesian basis functions:                                    9
       Number of spherical basis functions:                                    9
       Norm type:                                                              2

       Normalised Cartesian orbitals:

                        Set   Shell   Orbital            Exponent    Coefficient

                          1       1    1s               34.061341       0.255630
                                                         5.123575       0.461360
                                                         1.164663       0.681121

                          2       1    1s                0.327230       0.308355

                          3       1    1s                0.103072       0.129648

                          4       1    1px               0.800000       1.078456
                          4       1    1py               0.800000       1.078456
                          4       1    1pz               0.800000       1.078456

                          5       1    1px               0.095774       0.075945
                          5       1    1py               0.095774       0.075945
                          5       1    1pz               0.095774       0.075945

       Atomic covalent radius [Angstrom]:                                  0.320

       Atomic van der Waals radius [Angstrom]:                             1.090

     The atoms of this atomic kind are PAW atoms (GAPW):
       Hard Gaussian function radius:                                      1.200
       Rho0 radius:                                                        1.200
       Maximum GTO radius used for PAW projector construction:            24.566

     GAPW Soft Basis Set                                         def2-TZVPD_soft

       Number of orbital shell sets:                                           5
       Number of orbital shells:                                               5
       Number of primitive Cartesian functions:                                6
       Number of Cartesian basis functions:                                    9
       Number of spherical basis functions:                                    9
       Norm type:                                                              2

       Normalised Cartesian orbitals:

                        Set   Shell   Orbital            Exponent    Coefficient

                          1       1    1s                5.123575       0.461360
                                                         1.164663       0.681121

                          2       1    1s                0.327230       0.308355

                          3       1    1s                0.103072       0.129648

                          4       1    1px               0.800000       1.078456
                          4       1    1py               0.800000       1.078456
                          4       1    1pz               0.800000       1.078456

                          5       1    1px               0.095774       0.075945
                          5       1    1py               0.095774       0.075945
                          5       1    1pz               0.095774       0.075945

     AE Potential information for                                            ALL

       Description:                                       All-electron potential
                                          Krack, Parrinello, PCCP 2, 2105 (2000)

       Gaussian exponent of the core charge distribution:              12.500000
       Electronic configuration (s p d ...):                           1   0   0


 MOLECULE KIND INFORMATION


 All atoms are their own molecule, skipping detailed information


 TOTAL NUMBERS AND MAXIMUM NUMBERS

  Total number of            - Atomic kinds:                                   3
                             - Atoms:                                          9
                             - Shell sets:                                    86
                             - Shells:                                        86
                             - Primitive Cartesian functions:                139
                             - Cartesian basis functions:                    254
                             - Spherical basis functions:                    224

  Maximum angular momentum of the orbital basis functions:                     3


 MODULE QUICKSTEP: ATOMIC COORDINATES IN ANGSTROM

   Atom Kind Element         X             Y             Z       Z(eff)     Mass
      1    1 O     8      5.000000      5.000000      3.514035   8.0000  15.9994
      2    2 C     6      3.904896      5.000000      4.326544   6.0000  12.0107
      3    2 C     6      4.283247      5.000000      5.628667   6.0000  12.0107
      4    2 C     6      6.095104      5.000000      4.326544   6.0000  12.0107
      5    2 C     6      5.716753      5.000000      5.628667   6.0000  12.0107
      6    3 H     1      2.950628      5.000000      3.829013   1.0000   1.0079
      7    3 H     1      3.630272      5.000000      6.485965   1.0000   1.0079
      8    3 H     1      6.369728      5.000000      6.485965   1.0000   1.0079
      9    3 H     1      7.049372      5.000000      3.829013   1.0000   1.0079



 SCF PARAMETERS         Density guess:                                   RESTART
                        --------------------------------------------------------
                        max_scf:                                              20
                        max_scf_history:                                       0
                        max_diis:                                              4
                        --------------------------------------------------------
                        eps_scf:                                        1.00E-08
                        eps_scf_history:                                0.00E+00
                        eps_diis:                                       1.00E-01
                        eps_eigval:                                     1.00E-05
                        --------------------------------------------------------
                        level_shift [a.u.]:                             0.000000
                        --------------------------------------------------------
                        Outer loop SCF in use 
                        No variables optimised in outer loop
                        eps_scf                                         1.00E-08
                        max_scf                                               50
                        No outer loop optimization
                        step_size                                       5.00E-01

 PW_GRID| Information for grid number                                          1
 PW_GRID| Grid distributed over                                   256 processors
 PW_GRID| Real space group dimensions                                   256    1
 PW_GRID| the grid is blocked:                                                NO
 PW_GRID| Cutoff [a.u.]                                                   4000.0
 PW_GRID| spherical cutoff:                                                   NO
 PW_GRID|   Bounds   1           -270     269                Points:         540
 PW_GRID|   Bounds   2           -270     269                Points:         540
 PW_GRID|   Bounds   3           -270     269                Points:         540
 PW_GRID| Volume element (a.u.^3)  0.4286E-04     Volume (a.u.^3)      6748.3346
 PW_GRID| Grid span                                                    FULLSPACE
 PW_GRID|   Distribution                         Average         Max         Min
 PW_GRID|   G-Vectors                           615093.8      615600      615060
 PW_GRID|   G-Rays                                1139.1        1140        1139
 PW_GRID|   Real Space Points                   615093.8      874800      583200

 PW_GRID| Information for grid number                                          2
 PW_GRID| Number of the reference grid                                         1
 PW_GRID| Grid distributed over                                   256 processors
 PW_GRID| Real space group dimensions                                   256    1
 PW_GRID| the grid is blocked:                                                NO
 PW_GRID| Cutoff [a.u.]                                                   2000.0
 PW_GRID| spherical cutoff:                                                   NO
 PW_GRID|   Bounds   1           -192     191                Points:         384
 PW_GRID|   Bounds   2           -192     191                Points:         384
 PW_GRID|   Bounds   3           -192     191                Points:         384
 PW_GRID| Volume element (a.u.^3)  0.1192E-03     Volume (a.u.^3)      6748.3346
 PW_GRID| Grid span                                                    FULLSPACE
 PW_GRID|   Distribution                         Average         Max         Min
 PW_GRID|   G-Vectors                           221184.0      221952      220800
 PW_GRID|   G-Rays                                 576.0         578         575
 PW_GRID|   Real Space Points                   221184.0      294912      147456

 PW_GRID| Information for grid number                                          3
 PW_GRID| Number of the reference grid                                         2
 PW_GRID| Grid distributed over                                   256 processors
 PW_GRID| Real space group dimensions                                    16   16
 PW_GRID| the grid is blocked:                                                NO
 PW_GRID| Cutoff [a.u.]                                                    666.7
 PW_GRID| spherical cutoff:                                                   NO
 PW_GRID|   Bounds   1           -112     112                Points:         225
 PW_GRID|   Bounds   2           -112     112                Points:         225
 PW_GRID|   Bounds   3           -112     112                Points:         225
 PW_GRID| Volume element (a.u.^3)  0.5924E-03     Volume (a.u.^3)      6748.3346
 PW_GRID| Grid span                                                    FULLSPACE
 PW_GRID|   Distribution                         Average         Max         Min
 PW_GRID|   G-Vectors                            44494.6       45000       44100
 PW_GRID|   G-Rays                                 197.8         200         196
 PW_GRID|   Real Space Points                    44494.6       50625       44100

 PW_GRID| Information for grid number                                          4
 PW_GRID| Number of the reference grid                                         2
 PW_GRID| Grid distributed over                                   256 processors
 PW_GRID| Real space group dimensions                                    16   16
 PW_GRID| the grid is blocked:                                                NO
 PW_GRID| Cutoff [a.u.]                                                    222.2
 PW_GRID| spherical cutoff:                                                   NO
 PW_GRID|   Bounds   1            -64      63                Points:         128
 PW_GRID|   Bounds   2            -64      63                Points:         128
 PW_GRID|   Bounds   3            -64      63                Points:         128
 PW_GRID| Volume element (a.u.^3)  0.3218E-02     Volume (a.u.^3)      6748.3346
 PW_GRID| Grid span                                                    FULLSPACE
 PW_GRID|   Distribution                         Average         Max         Min
 PW_GRID|   G-Vectors                             8192.0        8448        8064
 PW_GRID|   G-Rays                                  64.0          66          63
 PW_GRID|   Real Space Points                     8192.0        8192        8192

 PW_GRID| Information for grid number                                          5
 PW_GRID| Number of the reference grid                                         2
 PW_GRID| Grid distributed over                                   256 processors
 PW_GRID| Real space group dimensions                                    16   16
 PW_GRID| the grid is blocked:                                                NO
 PW_GRID| Cutoff [a.u.]                                                     74.1
 PW_GRID| spherical cutoff:                                                   NO
 PW_GRID|   Bounds   1            -37      37                Points:          75
 PW_GRID|   Bounds   2            -37      37                Points:          75
 PW_GRID|   Bounds   3            -37      37                Points:          75
 PW_GRID| Volume element (a.u.^3)  0.1600E-01     Volume (a.u.^3)      6748.3346
 PW_GRID| Grid span                                                    FULLSPACE
 PW_GRID|   Distribution                         Average         Max         Min
 PW_GRID|   G-Vectors                             1647.9        1725        1575
 PW_GRID|   G-Rays                                  22.0          23          21
 PW_GRID|   Real Space Points                     1647.9        1875        1200

 PW_GRID| Information for grid number                                          6
 PW_GRID| Number of the reference grid                                         2
 PW_GRID| Grid distributed over                                   256 processors
 PW_GRID| Real space group dimensions                                    16   16
 PW_GRID| the grid is blocked:                                                NO
 PW_GRID| Cutoff [a.u.]                                                     24.7
 PW_GRID| spherical cutoff:                                                   NO
 PW_GRID|   Bounds   1            -22      22                Points:          45
 PW_GRID|   Bounds   2            -22      22                Points:          45
 PW_GRID|   Bounds   3            -22      22                Points:          45
 PW_GRID| Volume element (a.u.^3)  0.7406E-01     Volume (a.u.^3)      6748.3346
 PW_GRID| Grid span                                                    FULLSPACE
 PW_GRID|   Distribution                         Average         Max         Min
 PW_GRID|   G-Vectors                              356.0         405         315
 PW_GRID|   G-Rays                                   7.9           9           7
 PW_GRID|   Real Space Points                      356.0         405         180

 POISSON| Solver                                          Martyna-Tuckerman (MT)
 POISSON| MT| Alpha                                                        7.000
 POISSON| MT| Relative cutoff                                                2.0
 POISSON| Periodicity                                                       NONE

 RS_GRID| Information for grid number                                          2
 RS_GRID|   Bounds   1           -192     191                Points:         384
 RS_GRID|   Bounds   2           -192     191                Points:         384
 RS_GRID|   Bounds   3           -192     191                Points:         384
 RS_GRID| Real space distribution over                                  4 groups
 RS_GRID| Real space distribution along direction                              1
 RS_GRID| Border size                                                         64
 RS_GRID| Real space distribution over                                  8 groups
 RS_GRID| Real space distribution along direction                              2
 RS_GRID| Border size                                                         64
 RS_GRID| Real space distribution over                                  8 groups
 RS_GRID| Real space distribution along direction                              3
 RS_GRID| Border size                                                         64
 RS_GRID|   Distribution                         Average         Max         Min
 RS_GRID|   Planes                                 224.0         224         224
 RS_GRID|   Distribution                         Average         Max         Min
 RS_GRID|   Planes                                 176.0         176         176
 RS_GRID|   Distribution                         Average         Max         Min
 RS_GRID|   Planes                                 176.0         176         176

 RS_GRID| Information for grid number                                          3
 RS_GRID|   Bounds   1           -112     112                Points:         225
 RS_GRID|   Bounds   2           -112     112                Points:         225
 RS_GRID|   Bounds   3           -112     112                Points:         225
 RS_GRID| Real space distribution over                                  4 groups
 RS_GRID| Real space distribution along direction                              1
 RS_GRID| Border size                                                         38
 RS_GRID| Real space distribution over                                  8 groups
 RS_GRID| Real space distribution along direction                              2
 RS_GRID| Border size                                                         38
 RS_GRID| Real space distribution over                                  8 groups
 RS_GRID| Real space distribution along direction                              3
 RS_GRID| Border size                                                         38
 RS_GRID|   Distribution                         Average         Max         Min
 RS_GRID|   Planes                                 132.2         133         132
 RS_GRID|   Distribution                         Average         Max         Min
 RS_GRID|   Planes                                 104.1         105         104
 RS_GRID|   Distribution                         Average         Max         Min
 RS_GRID|   Planes                                 104.1         105         104

 RS_GRID| Information for grid number                                          4
 RS_GRID|   Bounds   1            -64      63                Points:         128
 RS_GRID|   Bounds   2            -64      63                Points:         128
 RS_GRID|   Bounds   3            -64      63                Points:         128
 RS_GRID| Real space fully replicated
 RS_GRID| Group size                                                           1

 RS_GRID| Information for grid number                                          5
 RS_GRID|   Bounds   1            -37      37                Points:          75
 RS_GRID|   Bounds   2            -37      37                Points:          75
 RS_GRID|   Bounds   3            -37      37                Points:          75
 RS_GRID| Real space fully replicated
 RS_GRID| Group size                                                           1

 RS_GRID| Information for grid number                                          6
 RS_GRID|   Bounds   1            -22      22                Points:          45
 RS_GRID|   Bounds   2            -22      22                Points:          45
 RS_GRID|   Bounds   3            -22      22                Points:          45
 RS_GRID| Real space fully replicated
 RS_GRID| Group size                                                           1

  HFX_INFO| Replica ID:                                                        1
  HFX_INFO| FRACTION:                                               0.2500000000
  HFX_INFO| Interaction Potential:                                       COULOMB
  HFX_INFO| EPS_SCHWARZ:                                                 1.0E-10
  HFX_INFO| EPS_SCHWARZ_FORCES                                           1.0E-06
  HFX_INFO| EPS_STORAGE_SCALING:                                         1.0E+00
  HFX_INFO| NBINS:                                                            64
  HFX_INFO| BLOCK_SIZE:                                                        1
  HFX_INFO| Number of periodic shells considered:                           NONE
  HFX_INFO| Number of periodic cells considered:                            NONE


 Number of electrons:                                                         36
 Number of occupied orbitals:                                                 18
 Number of molecular orbitals:                                                18

 Number of orbital functions:                                                224
 Number of independent orbital functions:                                    224

 Extrapolation method: initial_guess

 *** WARNING in qs_initial_guess.F:305 :: User requested to restart the   ***
 *** wavefunction from the file named: furan_les-RESTART.wfn. This file   ***
 *** does not exist. Please check the existence of the file or change     ***
 *** properly the value of the keyword WFN_RESTART_FILE_NAME. Calculation ***
 *** continues using ATOMIC GUESS.                                        ***


 Atomic guess: The first density matrix is obtained in terms of atomic orbitals
               and electronic configurations assigned to each atomic kind

 Guess for atomic kind: O

 Electronic structure
    Total number of core electrons                                          0.00
    Total number of valence electrons                                       8.00
    Total number of electrons                                               8.00
    Multiplicity                                                   not specified
    S      2.00  2.00
    P      4.00
 

 *******************************************************************************
                  Iteration          Convergence                     Energy [au]
 *******************************************************************************
                          1        0.636863                     -74.365120008498
                          2        0.863776                     -74.347470870902
                          3        0.499247E-01                 -74.465228656763
                          4        0.204957E-02                 -74.465884128937
                          5        0.131014E-03                 -74.465884762381
                          6        0.261204E-05                 -74.465884765902
                          7        0.198705E-05                 -74.465884765903
                          8        0.151423E-07                 -74.465884765904

 Energy components [Hartree]           Total Energy ::          -74.465884765904
                                        Band Energy ::          -40.613052953218
                                     Kinetic Energy ::           74.092474346522
                                   Potential Energy ::         -148.558359112426
                                      Virial (-V/T) ::            2.005039788760
                                        Core Energy ::         -103.021932824253
                                          XC Energy ::           -7.768116541888
                                     Coulomb Energy ::           36.324164600238

 Orbital energies  State     L     Occupation   Energy[a.u.]          Energy[eV]

                       1     0          2.000     -18.759793         -510.479924
                       2     0          2.000      -0.870822          -23.696273
 
                       1     1          4.000      -0.337956           -9.196245
 

 Total Electron Density at R=0:                                       298.881332

 Guess for atomic kind: C

 Electronic structure
    Total number of core electrons                                          0.00
    Total number of valence electrons                                       6.00
    Total number of electrons                                               6.00
    Multiplicity                                                   not specified
    S      2.00  2.00
    P      2.00
 

 *******************************************************************************
                  Iteration          Convergence                     Energy [au]
 *******************************************************************************
                          1        0.147314                     -37.407758342398
                          2        0.119182                     -37.412786141412
                          3        0.149877E-02                 -37.421694005503
                          4        0.258038E-03                 -37.421696061323
                          5        0.294860E-05                 -37.421696102040
                          6        0.176069E-06                 -37.421696102053

 Energy components [Hartree]           Total Energy ::          -37.421696102053
                                        Band Energy ::          -21.278560804794
                                     Kinetic Energy ::           37.193051448419
                                   Potential Energy ::          -74.614747550473
                                      Virial (-V/T) ::            2.006147509944
                                        Core Energy ::          -50.331504990781
                                          XC Energy ::           -4.732539652451
                                     Coulomb Energy ::           17.642348541179

 Orbital energies  State     L     Occupation   Energy[a.u.]          Energy[eV]

                       1     0          2.000      -9.943652         -270.580531
                       2     0          2.000      -0.498707          -13.570496
 
                       1     1          2.000      -0.196922           -5.358516
 

 Total Electron Density at R=0:                                       121.629194

 Guess for atomic kind: H

 Electronic structure
    Total number of core electrons                                          0.00
    Total number of valence electrons                                       1.00
    Total number of electrons                                               1.00
    Multiplicity                                                   not specified
    S      1.00
 

 *******************************************************************************
                  Iteration          Convergence                     Energy [au]
 *******************************************************************************
                          1        0.917598E-02                  -0.444895232610
                          2        0.101733E-02                  -0.444969959338
                          3        0.739292E-04                  -0.444971980690
                          4        0.601377E-07                  -0.444971989573

 Energy components [Hartree]           Total Energy ::           -0.444971989573
                                        Band Energy ::           -0.230448725171
                                     Kinetic Energy ::            0.428990089350
                                   Potential Energy ::           -0.873962078923
                                      Virial (-V/T) ::            2.037254707321
                                        Core Energy ::           -0.496265746842
                                          XC Energy ::           -0.234272986041
                                     Coulomb Energy ::            0.285566743311

 Orbital energies  State     L     Occupation   Energy[a.u.]          Energy[eV]

                       1     0          1.000      -0.230449           -6.270829
 

 Total Electron Density at R=0:                                         0.247098
 Re-scaling the density matrix to get the right number of electrons
                  # Electrons              Trace(P)               Scaling factor
                           36                36.000                        1.000
 DBCSR| CPU Multiplication driver                                           XSMM (U)
 DBCSR| Multrec recursion limit                                              512 (U)
 DBCSR| Multiplication stack size                                           1000 (D)
 DBCSR| Maximum elements for images                                    UNLIMITED (U)
 DBCSR| Multiplicative factor virtual images                                   1 (U)
 DBCSR| Use multiplication densification                                       T (D)
 DBCSR| Multiplication size stacks                                             3 (U)
 DBCSR| Use memory pool for CPU allocation                                     F (U)
 DBCSR| Number of 3D layers                                               SINGLE (U)
 DBCSR| Use MPI memory allocation                                              F (U)
 DBCSR| Use RMA algorithm                                                      F (U)
 DBCSR| Use Communication thread                                               T (U)
 DBCSR| Communication thread load                                             83 (D)
 DBCSR| MPI: My process id                                                     0
 DBCSR| MPI: Number of processes                                             128
 DBCSR| OMP: Current number of threads                                         2
 DBCSR| OMP: Max number of threads                                             2
 DBCSR| Split modifier for TAS multiplication algorithm                  1.0E+00 (U)


  **** **** ******  **  PROGRAM STARTED AT               2023-10-25 16:50:56.140
 ***** ** ***  *** **   PROGRAM STARTED ON                                  n130
 **    ****   ******    PROGRAM STARTED BY                              suphc355
 ***** **    ** ** **   PROGRAM PROCESS ID                                 53293
  **** **  *******  **  PROGRAM STARTED IN /work_beegfs/suphc355/benchmark/pbe0_
                                           bm_final/defuse/furan

 CP2K| version string:                 CP2K version 2023.2 (Development Version)
 CP2K| source code revision number:                                  git:416f200
 CP2K| cp2kflags: omp libint fftw3 libxc elpa parallel mpi_f08 scalapack cosma x
 CP2K|            smm spglib sirius libvori libbqb libvdwxc
 CP2K| is freely available from                            https://www.cp2k.org/
 CP2K| Program compiled at                          Do 7. Sep 13:52:13 CEST 2023
 CP2K| Program compiled on                                           caucluster2
 CP2K| Program compiled for                                                local
 CP2K| Data directory path                  /zfshome/suphc355/software/cp2k/data
 CP2K| Input file name                                                   les.inp
 
 GLOBAL| Force Environment number                                              1
 GLOBAL| Basis set file name                                            ../basis
 GLOBAL| Potential file name                                           POTENTIAL
 GLOBAL| MM Potential file name                                     MM_POTENTIAL
 GLOBAL| Coordinate file name                                            lit.xyz
 GLOBAL| Method name                                                        CP2K
 GLOBAL| Project name                                                  furan_les
 GLOBAL| Run type                                                         ENERGY
 GLOBAL| FFT library                                                       FFTW3
 GLOBAL| Diagonalization library                                            ELPA
 GLOBAL| DGEMM library                                                      BLAS
 GLOBAL| Minimum number of eigenvectors for ELPA usage                        16
 GLOBAL| Orthonormality check for eigenvectors                          DISABLED
 GLOBAL| Matrix multiplication library                                     COSMA
 GLOBAL| All-to-all communication in single precision                          F
 GLOBAL| FFTs using library dependent lengths                                  F
 GLOBAL| Grid backend                                                       AUTO
 GLOBAL| Global print level                                               MEDIUM
 GLOBAL| MPI I/O enabled                                                       T
 GLOBAL| Total number of message passing processes                           128
 GLOBAL| Number of threads for this process                                    2
 GLOBAL| This output is from process                                           0
 GLOBAL| Stack size for threads created by OpenMP (OMP_STACKSIZE)        default
 GLOBAL| CPU model name                          AMD EPYC 7313 16-Core Processor
 GLOBAL| CPUID                                                              1002

 MEMORY| system memory details [Kb]
 MEMORY|                        rank 0           min           max       average
 MEMORY| MemTotal            528224476     528224476     528224476     528224476
 MEMORY| MemFree             500217412     490754808     506403524     497312721
 MEMORY| Buffers                925180        925180       4216724       2084336
 MEMORY| Cached                6894756       6293948      13982768       9326072
 MEMORY| Slab                  7955260       3328316       8615612       6828226
 MEMORY| SReclaimable          1492112       1075248       1947064       1522424
 MEMORY| MemLikelyFree       509529460     507051412     515461452     510245553


 *** Fundamental physical constants (SI units) ***

 *** Literature: B. J. Mohr and B. N. Taylor,
 ***             CODATA recommended values of the fundamental physical
 ***             constants: 2006, Web Version 5.1
 ***             http://physics.nist.gov/constants

 Speed of light in vacuum [m/s]                             2.99792458000000E+08
 Magnetic constant or permeability of vacuum [N/A**2]       1.25663706143592E-06
 Electric constant or permittivity of vacuum [F/m]          8.85418781762039E-12
 Planck constant (h) [J*s]                                  6.62606896000000E-34
 Planck constant (h-bar) [J*s]                              1.05457162825177E-34
 Elementary charge [C]                                      1.60217648700000E-19
 Electron mass [kg]                                         9.10938215000000E-31
 Electron g factor [ ]                                     -2.00231930436220E+00
 Proton mass [kg]                                           1.67262163700000E-27
 Fine-structure constant                                    7.29735253760000E-03
 Rydberg constant [1/m]                                     1.09737315685270E+07
 Avogadro constant [1/mol]                                  6.02214179000000E+23
 Boltzmann constant [J/K]                                   1.38065040000000E-23
 Atomic mass unit [kg]                                      1.66053878200000E-27
 Bohr radius [m]                                            5.29177208590000E-11

 *** Conversion factors ***

 [u] -> [a.u.]                                              1.82288848426455E+03
 [Angstrom] -> [Bohr] = [a.u.]                              1.88972613288564E+00
 [a.u.] = [Bohr] -> [Angstrom]                              5.29177208590000E-01
 [a.u.] -> [s]                                              2.41888432650478E-17
 [a.u.] -> [fs]                                             2.41888432650478E-02
 [a.u.] -> [J]                                              4.35974393937059E-18
 [a.u.] -> [N]                                              8.23872205491840E-08
 [a.u.] -> [K]                                              3.15774647902944E+05
 [a.u.] -> [kJ/mol]                                         2.62549961709828E+03
 [a.u.] -> [kcal/mol]                                       6.27509468713739E+02
 [a.u.] -> [Pa]                                             2.94210107994716E+13
 [a.u.] -> [bar]                                            2.94210107994716E+08
 [a.u.] -> [atm]                                            2.90362800883016E+08
 [a.u.] -> [eV]                                             2.72113838565563E+01
 [a.u.] -> [Hz]                                             6.57968392072181E+15
 [a.u.] -> [1/cm] (wave numbers)                            2.19474631370540E+05
 [a.u./Bohr**2] -> [1/cm]                                   5.14048714338585E+03
 

 CELL_TOP| Volume [angstrom^3]:                                      1000.000000
 CELL_TOP| Vector a [angstrom    10.000     0.000     0.000   |a| =    10.000000
 CELL_TOP| Vector b [angstrom     0.000    10.000     0.000   |b| =    10.000000
 CELL_TOP| Vector c [angstrom     0.000     0.000    10.000   |c| =    10.000000
 CELL_TOP| Angle (b,c), alpha [degree]:                                90.000000
 CELL_TOP| Angle (a,c), beta  [degree]:                                90.000000
 CELL_TOP| Angle (a,b), gamma [degree]:                                90.000000
 CELL_TOP| Numerically orthorhombic:                                         YES
 CELL_TOP| Periodicity                                                      NONE
 
 GENERATE|  Preliminary Number of Bonds generated:                             0
 GENERATE|  Achieved consistency in connectivity generation.

 CELL| Volume [angstrom^3]:                                          1000.000000
 CELL| Vector a [angstrom]:      10.000     0.000     0.000   |a| =    10.000000
 CELL| Vector b [angstrom]:       0.000    10.000     0.000   |b| =    10.000000
 CELL| Vector c [angstrom]:       0.000     0.000    10.000   |c| =    10.000000
 CELL| Angle (b,c), alpha [degree]:                                    90.000000
 CELL| Angle (a,c), beta  [degree]:                                    90.000000
 CELL| Angle (a,b), gamma [degree]:                                    90.000000
 CELL| Numerically orthorhombic:                                             YES
 CELL| Periodicity                                                          NONE

 CELL_REF| Volume [angstrom^3]:                                      1000.000000
 CELL_REF| Vector a [angstrom    10.000     0.000     0.000   |a| =    10.000000
 CELL_REF| Vector b [angstrom     0.000    10.000     0.000   |b| =    10.000000
 CELL_REF| Vector c [angstrom     0.000     0.000    10.000   |c| =    10.000000
 CELL_REF| Angle (b,c), alpha [degree]:                                90.000000
 CELL_REF| Angle (a,c), beta  [degree]:                                90.000000
 CELL_REF| Angle (a,b), gamma [degree]:                                90.000000
 CELL_REF| Numerically orthorhombic:                                         YES
 CELL_REF| Periodicity                                                      NONE

 *******************************************************************************
 *******************************************************************************
 **                                                                           **
 **     #####                         ##              ##                      **
 **    ##   ##            ##          ##              ##                      **
 **   ##     ##                       ##            ######                    **
 **   ##     ##  ##   ##  ##   #####  ##  ##   ####   ##    #####    #####    **
 **   ##     ##  ##   ##  ##  ##      ## ##   ##      ##   ##   ##  ##   ##   **
 **   ##  ## ##  ##   ##  ##  ##      ####     ###    ##   ######   ######    **
 **    ##  ###   ##   ##  ##  ##      ## ##      ##   ##   ##       ##        **
 **     #######   #####   ##   #####  ##  ##  ####    ##    #####   ##        **
 **           ##                                                    ##        **
 **                                                                           **
 **                                                ... make the atoms dance   **
 **                                                                           **
 **            Copyright (C) by CP2K developers group (2000-2023)             **
 **                      J. Chem. Phys. 152, 194103 (2020)                    **
 **                                                                           **
 *******************************************************************************

 DFT| Spin restricted Kohn-Sham (RKS) calculation                            RKS
 DFT| Multiplicity                                                             1
 DFT| Number of spin states                                                    1
 DFT| Charge                                                                   0
 DFT| Self-interaction correction (SIC)                                       NO
 DFT| Cutoffs: density                                              1.000000E-10
 DFT|          gradient                                             1.000000E-10
 DFT|          tau                                                  1.000000E-10
 DFT|          cutoff_smoothing_range                               0.000000E+00
 DFT| XC density smoothing                                                  NONE
 DFT| XC derivatives                                                          PW

 FUNCTIONAL| PBE:
 FUNCTIONAL| J.P.Perdew, K.Burke, M.Ernzerhof, Phys. Rev. Letter, vol. 77, n 18,
 FUNCTIONAL|  pp. 3865-3868, (1996)sx=0.750sc=1.000{spin unpolarized}           


 QS| Method:                                                                GAPW
 QS| Density plane wave grid type                        NON-SPHERICAL FULLSPACE
 QS| Number of grid levels:                                                    5
 QS| Density cutoff [a.u.]:                                               2000.0
 QS| Multi grid cutoff [a.u.]: 1) grid level                              2000.0
 QS|                           2) grid level                               666.7
 QS|                           3) grid level                               222.2
 QS|                           4) grid level                                74.1
 QS|                           5) grid level                                24.7
 QS| Grid level progression factor:                                          3.0
 QS| Relative density cutoff [a.u.]:                                        40.0
 QS| Interaction thresholds: eps_pgf_orb:                                1.0E-30
 QS|                         eps_filter_matrix:                          0.0E+00
 QS|                         eps_core_charge:                            1.0E-17
 QS|                         eps_rho_gspace:                             1.0E-15
 QS|                         eps_rho_rspace:                             1.0E-15
[...]
 flops    37 x    18 x    18             22057920       0.0%    100.0%      0.0%
 flops    37 x    32 x    37             25233408       0.0%    100.0%      0.0%
 flops    37 x     9 x    18             30017952       0.0%    100.0%      0.0%
 flops     9 x    37 x    18             30017952       0.0%    100.0%      0.0%
 flops    37 x    40 x    18             33353280       0.0%    100.0%      0.0%
 flops    40 x    37 x    18             33353280       0.0%    100.0%      0.0%
 flops    18 x    18 x     9             48965472       0.0%    100.0%      0.0%
 flops    18 x    18 x    40             51840000       0.0%    100.0%      0.0%
 flops     9 x    18 x     9             52336368       0.0%    100.0%      0.0%
 flops     9 x    18 x    40             56453760       0.0%    100.0%      0.0%
 flops    40 x    18 x     9             58216320       0.0%    100.0%      0.0%
 flops    40 x    18 x    40             66355200       0.0%    100.0%      0.0%
 flops    37 x    37 x    18            154258920       0.0%    100.0%      0.0%
 flops    18 x    18 x    37            210796992       0.0%    100.0%      0.0%
 flops    37 x    18 x     9            215400384       0.0%    100.0%      0.0%
 flops     9 x    18 x    37            215400384       0.0%    100.0%      0.0%
 flops    37 x    18 x    40            232087680       0.0%    100.0%      0.0%
 flops    40 x    18 x    37            246579840       0.0%    100.0%      0.0%
 flops    37 x    18 x    37            924764976       0.0%    100.0%      0.0%
 flops inhomo. stacks                    25303680     100.0%      0.0%      0.0%
 flops total                         2.829162E+09       0.9%     99.1%      0.0%
 flops max/rank                    382.157952E+06       1.9%     98.1%      0.0%
 matmuls inhomo. stacks                       674     100.0%      0.0%      0.0%
 matmuls total                             129538       0.5%     99.5%      0.0%
 number of processed stacks                102891       0.7%     99.3%      0.0%
 average stack size                                     1.0       1.3       0.0
 marketing flops                     3.167467E+09
 -------------------------------------------------------------------------------
 # multiplications                           1958
 max memory usage/rank               1.276637E+09
 # max total images/rank                        1
 # max 3D layers                                1
 # MPI messages exchanged                 1754368
 MPI messages size (bytes):
  total size                         3.532676E+09
  min size                           0.000000E+00
  max size                          12.800000E+03
  average size                       2.013646E+03
 MPI breakdown and total messages size (bytes):
             size <=      128             1141602                        0
       128 < size <=     8192              426671               1431005856
      8192 < size <=    32768              186095               2101670368
     32768 < size <=   131072                   0                        0
    131072 < size <=  4194304                   0                        0
   4194304 < size <= 16777216                   0                        0
  16777216 < size                               0                        0
 -------------------------------------------------------------------------------
 -                                                                             -
 -                      DBCSR MESSAGE PASSING PERFORMANCE                      -
 -                                                                             -
 -------------------------------------------------------------------------------
 ROUTINE             CALLS      AVE VOLUME [Bytes]
 MP_Bcast               44                     12.
 MP_Allreduce         8632                      8.
 MP_Alltoall         29055                  10693.
 MP_ISend            62648                   1732.
 MP_IRecv            62648                   1602.
 -------------------------------------------------------------------------------

 -------------------------------------------------------------------------------
 -                                                                             -
 -                                DBM STATISTICS                               -
 -                                                                             -
 -------------------------------------------------------------------------------
    M  x    N  x    K                                          COUNT     PERCENT
 -------------------------------------------------------------------------------

 -------------------------------------------------------------------------------
 -                                                                             -
 -                                GRID STATISTICS                              -
 -                                                                             -
 -------------------------------------------------------------------------------
 LP    KERNEL             BACKEND                              COUNT     PERCENT
 1     collocate ortho    CPU                                 215950      13.03%
 1     integrate ortho    CPU                                 212248      12.81%
 2     collocate ortho    CPU                                 194250      11.72%
 2     integrate ortho    CPU                                 190920      11.52%
 0     collocate ortho    CPU                                 151725       9.16%
 0     integrate ortho    CPU                                 149124       9.00%
 3     collocate ortho    CPU                                 122850       7.42%
 3     integrate ortho    CPU                                 120744       7.29%
 2     collocate general  CPU                                 100224       6.05%
 2     integrate general  CPU                                  58752       3.55%
 4     collocate ortho    CPU                                  51625       3.12%
 4     integrate ortho    CPU                                  50740       3.06%
 5     collocate ortho    CPU                                  15750       0.95%
 5     integrate ortho    CPU                                  15480       0.93%
 6     collocate ortho    CPU                                   2625       0.16%
 6     integrate ortho    CPU                                   2580       0.16%
 0     collocate general  CPU                                    576       0.03%
 0     integrate general  CPU                                    576       0.03%
 -------------------------------------------------------------------------------

 MEMORY| Estimated peak process memory [MiB]                                1218

 -------------------------------------------------------------------------------
 ----                             MULTIGRID INFO                            ----
 -------------------------------------------------------------------------------
 count for grid        1:         573877          cutoff [a.u.]          600.00
 count for grid        2:         102256          cutoff [a.u.]          200.00
 count for grid        3:         133631          cutoff [a.u.]           66.67
 count for grid        4:          60407          cutoff [a.u.]           22.22
 count for grid        5:          16484          cutoff [a.u.]            7.41
 total gridlevel count  :         886655

 -------------------------------------------------------------------------------
 -                                                                             -
 -                         MESSAGE PASSING PERFORMANCE                         -
 -                                                                             -
 -------------------------------------------------------------------------------

 ROUTINE             CALLS      AVE VOLUME [Bytes]
 MP_Group                6
 MP_Bcast             4123                 132595.
 MP_Allreduce        12293                  18388.
 MP_Sync              1649
 MP_Alltoall          4670                4736775.
 MP_SendRecv         44100                  86908.
 MP_ISendRecv        82782                  51586.
 MP_Wait            100342
 MP_comm_split          81
 MP_ISend            13750                 759801.
 MP_IRecv            15060                 693013.
 -------------------------------------------------------------------------------


 -------------------------------------------------------------------------------
 -                                                                             -
 -                           R E F E R E N C E S                               -
 -                                                                             -
 -------------------------------------------------------------------------------
 
 CP2K version 2023.1 (Development Version), the CP2K developers group (2023).
 CP2K is freely available from https://www.cp2k.org/ .

 Kuehne,Thomas D.; Iannuzzi,Marcella; Del Ben,Mauro;
 Rybkin,Vladimir V.; Seewald,Patrick; Stein,Frederick; Laino,Teodoro;
 Khaliullin,Rustam Z.; Schuett,Ole; Schiffmann,Florian; Golze,Dorothea;
 Wilhelm,Jan; Chulkov,Sergey; Bani-Hashemian,Mohammad Hossein;
 Weber,Valery; Borstnik,Urban; Taillefumier,Mathieu;
 Jakobovits,Alice Shoshana; Lazzaro,Alfio; Pabst,Hans; Mueller,Tiziano;
 Schade,Robert; Guidon,Manuel; Andermatt,Samuel; Holmberg,Nico;
 Schenter,Gregory K.; Hehn,Anna; Bussy,Augustin; Belleflamme,Fabian;
 Tabacchi,Gloria; Gloess,Andreas; Lass,Michael; Bethune,Iain;
 Mundy,Christopher J.; Plessl,Christian; Watkins,Matt;
 VandeVondele,Joost; Krack,Matthias; Hutter,Juerg. 
 The Journal of Chemical Physics, 152 (19), (2020). 
 CP2K: An electronic structure and molecular dynamics software package -
 Quickstep: Efficient and accurate electronic structure calculations.
 https://doi.org/10.1063/5.0007045

 Schuett, Ole; Messmer, Peter; Hutter, Juerg; VandeVondele, Joost. 
 Electronic Structure Calculations on Graphics Processing Units, John
 Wiley & Sons, Ltd, 173-190 (2016). 
 GPU-Accelerated Sparse Matrix-Matrix Multiplication for
 Linear Scaling Density Functional Theory.
 https://doi.org/10.1002/9781118670712.ch8

 Heinecke, A; Henry, G; Hutchinson, M; Pabst, H. 
 Proceedings of Intl. Supercomputing Conference, 981-991 (2016). 
 LIBXSMM: Accelerating Small Matrix Multiplications
 by Runtime Code Generation.
 https://doi.org/10.1109/SC.2016.83

 Borstnik, U; VandeVondele, J; Weber, V; Hutter, J. 
 PARALLEL COMPUTING, 40 (5-6), 47-58 (2014). 
 Sparse matrix multiplication: The distributed block-compressed sparse
 row library.
 https://doi.org/10.1016/j.parco.2014.03.012

 Hutter, J; Iannuzzi, M; Schiffmann, F; VandeVondele, J. 
 WIREs Comput Mol Sci., 4 (1), 15-25 (2014). 
 CP2K: atomistic simulations of condensed matter systems.
 https://doi.org/10.1002/wcms.1159

 Guidon, M; Hutter, J; VandeVondele, J. 
 JOURNAL OF CHEMICAL THEORY AND COMPUTATION, 5 (11), 3010-3021 (2009). 
 Robust Periodic Hartree-Fock Exchange for Large-Scale Simulations Using
 Gaussian Basis Sets.
 https://doi.org/10.1021/ct900494g

 Guidon, M; Schiffmann, F; Hutter, J; VandeVondele, J. 
 JOURNAL OF CHEMICAL PHYSICS, 128 (21), 214104 (2008). 
 Ab initio molecular dynamics using hybrid density functionals.
 https://doi.org/10.1063/1.2931945

 Frigo, M; Johnson, SG. 
 PROCEEDINGS OF THE IEEE, 93 (2), 216-231 (2005). 
 The design and implementation of FFTW3.
 https://doi.org/10.1109/JPROC.2004.840301

 Iannuzzi, M; Chassaing, T; Wallman, T; Hutter, J. 
 CHIMIA, 59 (7-8), 499-503 (2005). 
 Ground and excited state density functional calculations with the
 Gaussian and augmented-plane-wave method.
 https://doi.org/10.2533/000942905777676164

 VandeVondele, J; Hutter, J. 
 JOURNAL OF CHEMICAL PHYSICS, 118 (10), 4365-4369 (2003). 
 An efficient orbital transformation method for electronic structure
 calculations.
 https://doi.org/10.1063/1.1543154

 Martin,Richard L.. 
 The Journal of Chemical Physics, 118 (11), 4775-4777 (2003). 
 Natural transition orbitals.
 https://doi.org/10.1063/1.1558471

 Lippert, G; Hutter, J; Parrinello, M. 
 THEORETICAL CHEMISTRY ACCOUNTS, 103 (2), 124-140 (1999). 
 The Gaussian and augmented-plane-wave density functional method for ab
 initio molecular dynamics simulations.
 https://doi.org/10.1007/s002140050523

 Krack, M; Parrinello, M. 
 PHYSICAL CHEMISTRY CHEMICAL PHYSICS, 2 (10), 2105-2112 (2000). 
 All-electron ab-initio molecular dynamics.
 https://doi.org/10.1039/b001167n

 Martyna, GJ; Tuckerman, ME. 
 JOURNAL OF CHEMICAL PHYSICS, 110 (6), 2810-2821 (1999). 
 A reciprocal space based method for treating long range interactions in
 ab initio and force-field-based calculations in clusters.
 https://doi.org/10.1063/1.477923

 Perdew, JP; Burke, K; Ernzerhof, M. 
 PHYSICAL REVIEW LETTERS, 77 (18), 3865-3868 (1996). 
 Generalized gradient approximation made simple.
 https://doi.org/10.1103/PhysRevLett.77.3865


 -------------------------------------------------------------------------------
 -                                                                             -
 -                                T I M I N G                                  -
 -                                                                             -
 -------------------------------------------------------------------------------
 SUBROUTINE                       CALLS  ASD         SELF TIME        TOTAL TIME
                                MAXIMUM       AVERAGE  MAXIMUM  AVERAGE  MAXIMUM
 CP2K                                 1  1.0    0.059    0.117  127.765  127.803
 qs_energies                          1  2.0    0.002    0.008  126.699  126.737
 qs_energies_properties               1  3.0    0.000    0.000   91.357   91.390
 tddfpt                               1  4.0    0.002    0.008   91.357   91.390
 tddfpt_soc_energies                  1  5.0    0.003    0.008   91.259   91.286
 tddfpt_energies                      2  6.0    0.002    0.029   90.687   90.714
 tddfpt_davidson_solver               4  7.0    0.001    0.002   88.880   88.906
 tddfpt_compute_Aop_evects           14  8.0    0.004    0.016   87.786   87.812
 fhxc_kernel                         14  9.0    0.007    0.013   64.035   64.056
 integrate_four_center              312 10.8    2.778    5.593   36.319   36.360
 scf_env_do_scf                       1  3.0    0.000    0.001   34.713   34.724
 pw_transfer                       3991 12.1    0.285    0.368   29.937   31.368
 fft_wrap_pw1pw2                   3613 13.2    0.016    0.027   29.576   30.956
 fft_wrap_pw1pw2_600               2224 14.3    0.714    0.812   28.559   29.961
 qs_ks_update_qs_env                 34  5.0    0.000    0.000   29.910   29.927
 rebuild_ks_matrix                   32  6.0    0.000    0.000   29.906   29.923
 qs_ks_build_kohn_sham_matrix        32  7.0    0.010    0.024   29.906   29.923
 fft3d_ps                          3613 15.2   14.602   16.564   27.179   28.570
 tddfpt_apply_hfx                    14  9.0    0.002    0.005   23.246   23.253
 tddft_hfx_matrix                   280 10.0    0.003    0.004   21.921   21.958
 scf_env_do_scf_inner_loop           32  4.0    0.001    0.001   21.234   21.240
 integrate_four_center_main         312 11.8    0.070    0.239   17.723   20.060
 integrate_four_center_bin        65875 12.8   17.653   19.961   17.653   19.961
 tddfpt_apply_xc_analytic           140 10.0    0.137    0.167   18.393   18.552
 xc_pw_derive                      1251 11.7    0.005    0.011   15.292   16.382
 rs_pw_transfer                    2013 11.8    0.012    0.021   14.383   15.223
 integrate_v_rspace                 172  9.8    0.005    0.014   14.395   15.086
 hfx_ks_matrix                       32  8.0    0.001    0.001   14.403   14.414
 mp_alltoall_z22v                  3613 17.2   11.773   14.379   11.773   14.379
 potential_pw2rs                    172 10.8    0.012    0.022   13.626   14.195
 prepare_gapw_den                   174  9.6    0.002    0.005   13.893   13.912
 qs_rho_update_rho_low              175  9.0    0.002    0.004   13.511   13.568
 init_scf_loop                        2  4.0    0.000    0.000   13.478   13.482
 calculate_rho_elec                 175 10.0    0.605    0.722   13.130   13.187
 calculate_xc_2nd_deriv_atom        140 10.0    0.319    4.015    0.982   12.482
 yz_to_x                           1391 16.5    0.288    0.362    9.635   11.747
 xc_calc_2nd_deriv_analytical       700 11.2    3.648    4.284   11.047   11.192
 mp_sum_d                          2282  9.3    9.251   10.395    9.251   10.395
 xc_pw_divergence                   172 11.6    0.002    0.004    8.840    9.913
 tddfpt_apply_coulomb                70 10.0    0.001    0.002    9.311    9.840
 density_rs2pw                      175 11.0    0.010    0.019    8.821    9.597
 gaVxcgb_GC                         344 10.6    0.716    9.207    0.716    9.207
 mp_sync                           1649 12.5    3.795    7.560    3.795    7.560
 calc_screening_functions             1 10.0    2.066    3.267    4.699    7.123
 pw_poisson_solve                   102 10.1    0.050    0.054    6.378    6.909
 calculate_rho_atom                 522 10.6    2.706    6.895    2.706    6.895
 pw_integral_ab                     102 11.1    0.431    0.441    6.167    6.698
 powell_optimize                1053343 11.0    4.238    6.163    4.238    6.163
 qs_vxc_create                       32  8.0    0.003    0.010    6.066    6.068
 xc_vxc_pw_create                    32  9.0    0.148    0.166    6.063    6.067
 put_rho0_on_grid                   174 10.6    0.698    0.976    5.637    5.656
 mp_sum_l                          8236 11.3    4.662    5.349    4.662    5.349
 xc_rho_set_and_dset_create          34  9.9    0.045    0.055    4.378    5.127
 rs_pw_transfer_PW2RS_600           275 12.5    1.358    1.434    4.827    4.927
 rs_pw_transfer_RS2PW_600           350 12.8    1.722    1.893    4.110    4.849
 mp_sum_dv                         5653 10.8    4.395    4.780    4.395    4.780
 dbcsr_multiply_generic            1958 10.9    0.050    0.148    4.248    4.754
 integrate_four_center_load         312 11.8    0.002    0.008    3.902    4.304
 hfx_load_balance                     1 11.0    0.000    0.001    3.900    4.303
 hfx_load_balance_range               1 12.0    0.001    0.015    3.792    4.195
 calc_pair_dist_radii                 1 10.0    1.092    1.759    2.697    4.065
 mp_waitany                       13750 13.7    3.241    3.953    3.241    3.953
 xc_functional_eval                 722 11.3    0.000    0.002    3.147    3.876
 mp_waitall_1                    241922 14.4    3.042    3.757    3.042    3.757
 pbe_lda_eval                       721 12.4    2.870    3.616    2.870    3.616
 grid_collocate_task_list           175 11.0    3.334    3.609    3.334    3.609
 integrate_vhg0_rspace              102 10.1    0.206    0.283    3.487    3.537
 cp_dbcsr_sm_fm_multiply            885  9.5    0.011    0.028    3.282    3.505
 rs_grid_zero                       552 12.4    3.305    3.342    3.305    3.342
 x_to_yz                           1528 15.9    0.376    0.462    2.786    3.212
 multiply_cannon                   1958 11.9    0.094    0.174    2.029    2.657
 -------------------------------------------------------------------------------

 The number of warnings for this run is : 1
 
 -------------------------------------------------------------------------------
  **** **** ******  **  PROGRAM ENDED AT                 2023-10-25 17:02:24.072
 ***** ** ***  *** **   PROGRAM RAN ON                                      n162
 **    ****   ******    PROGRAM RAN BY                                  suphc355
 ***** **    ** ** **   PROGRAM PROCESS ID                               3278762
  **** **  *******  **  PROGRAM STOPPED IN /work_beegfs/suphc355/benchmark/pbe0_
                                           bm_final/defuse/furan
