
 *******************************************************************************
 *   ___                                                                       *
 *  /   \                                                                      *
 * [ABORT]                                                                     *
 *  \___/      section STRUCTURE_DATA does not contain keyword __CONTROL_VAL   *
 *    |                                                                        *
 *  O/|                                                                        *
 * /| |                                                                        *
 * / \                                        input/input_section_types.F:1093 *
 *******************************************************************************


 ===== Routine Calling Stack ===== 

            5 write_structure_data
            4 cp_eval_at
            3 geoopt_bfgs
            2 cp_geo_opt
            1 CP2K
 DBCSR| CPU Multiplication driver                                           XSMM (U)
 DBCSR| Multrec recursion limit                                              512 (U)
 DBCSR| Multiplication stack size                                           1000 (D)
 DBCSR| Maximum elements for images                                    UNLIMITED (U)
 DBCSR| Multiplicative factor virtual images                                   1 (U)
 DBCSR| Use multiplication densification                                       T (D)
 DBCSR| Multiplication size stacks                                             3 (U)
 DBCSR| Use memory pool for CPU allocation                                     F (U)
 DBCSR| Number of 3D layers                                               SINGLE (U)
 DBCSR| Use MPI memory allocation                                              F (U)
 DBCSR| Use RMA algorithm                                                      F (U)
 DBCSR| Use Communication thread                                               T (U)
 DBCSR| Communication thread load                                             83 (D)
 DBCSR| MPI: My process id                                                     0
 DBCSR| MPI: Number of processes                                              64
 DBCSR| OMP: Current number of threads                                         2
 DBCSR| OMP: Max number of threads                                             2
 DBCSR| Split modifier for TAS multiplication algorithm                  1.0E+00 (U)


  **** **** ******  **  PROGRAM STARTED AT               2023-12-06 09:11:13.807
 ***** ** ***  *** **   PROGRAM STARTED ON                           nesh-clk485
 **    ****   ******    PROGRAM STARTED BY                              suphc355
 ***** **    ** ** **   PROGRAM PROCESS ID                               3033874
  **** **  *******  **  PROGRAM STARTED IN /gxfs_work/cau/suphc355/homologes/HX/
                                           opt/I

 CP2K| version string:                 CP2K version 2023.2 (Development Version)
 CP2K| source code revision number:                                  git:845a3ae
 CP2K| cp2kflags: omp libint fftw3 libxc parallel mpi_f08 scalapack cosma xsmm s
 CP2K|            pglib mkl
 CP2K| is freely available from                            https://www.cp2k.org/
 CP2K| Program compiled at                           Fr 1. Dez 12:58:35 CET 2023
 CP2K| Program compiled on                                           nesh-login3
 CP2K| Program compiled for                                                local
 CP2K| Data directory path            /gxfs_home/cau/suphc355/software/cp2k/data
 CP2K| Input file name                                                   opt.inp
 
 GLOBAL| Force Environment number                                              1
 GLOBAL| Basis set file name                                   ../../../basis_ae
 GLOBAL| Potential file name                                           POTENTIAL
 GLOBAL| MM Potential file name                                     MM_POTENTIAL
 GLOBAL| Coordinate file name                                          start.xyz
 GLOBAL| Method name                                                        CP2K
 GLOBAL| Project name                                                     HI_opt
 GLOBAL| Run type                                                        GEO_OPT
 GLOBAL| FFT library                                                       FFTW3
 GLOBAL| Diagonalization library                                       ScaLAPACK
 GLOBAL| DGEMM library                                                      BLAS
 GLOBAL| Orthonormality check for eigenvectors                          DISABLED
 GLOBAL| Matrix multiplication library                                     COSMA
 GLOBAL| All-to-all communication in single precision                          F
 GLOBAL| FFTs using library dependent lengths                                  F
 GLOBAL| Grid backend                                                       AUTO
 GLOBAL| Global print level                                               MEDIUM
 GLOBAL| MPI I/O enabled                                                       T
 GLOBAL| Total number of message passing processes                            64
 GLOBAL| Number of threads for this process                                    2
 GLOBAL| This output is from process                                           0
 GLOBAL| Stack size for threads created by OpenMP (OMP_STACKSIZE)        default
 GLOBAL| CPU model name                Intel(R) Xeon(R) Gold 6226R CPU @ 2.90GHz
 GLOBAL| CPUID                                                              1003

 MEMORY| system memory details [Kb]
 MEMORY|                        rank 0           min           max       average
 MEMORY| MemTotal            196683224     196683224     196683224     196683224
 MEMORY| MemFree             177846620     177750120     177846676     177798420
 MEMORY| Buffers                 74808         74808         96948         85878
 MEMORY| Cached                1021728        961676       1021728        991648
 MEMORY| Slab                   420056        420056        499316        459686
 MEMORY| SReclaimable            99264         99264        104356        101810
 MEMORY| MemLikelyFree       179042420     178913296     179042420     178977757


 *** Fundamental physical constants (SI units) ***

 *** Literature: B. J. Mohr and B. N. Taylor,
 ***             CODATA recommended values of the fundamental physical
 ***             constants: 2006, Web Version 5.1
 ***             http://physics.nist.gov/constants

 Speed of light in vacuum [m/s]                             2.99792458000000E+08
 Magnetic constant or permeability of vacuum [N/A**2]       1.25663706143592E-06
 Electric constant or permittivity of vacuum [F/m]          8.85418781762039E-12
 Planck constant (h) [J*s]                                  6.62606896000000E-34
 Planck constant (h-bar) [J*s]                              1.05457162825177E-34
 Elementary charge [C]                                      1.60217648700000E-19
 Electron mass [kg]                                         9.10938215000000E-31
 Electron g factor [ ]                                     -2.00231930436220E+00
 Proton mass [kg]                                           1.67262163700000E-27
 Fine-structure constant                                    7.29735253760000E-03
 Rydberg constant [1/m]                                     1.09737315685270E+07
 Avogadro constant [1/mol]                                  6.02214179000000E+23
 Boltzmann constant [J/K]                                   1.38065040000000E-23
 Atomic mass unit [kg]                                      1.66053878200000E-27
 Bohr radius [m]                                            5.29177208590000E-11

 *** Conversion factors ***

 [u] -> [a.u.]                                              1.82288848426455E+03
 [Angstrom] -> [Bohr] = [a.u.]                              1.88972613288564E+00
 [a.u.] = [Bohr] -> [Angstrom]                              5.29177208590000E-01
 [a.u.] -> [s]                                              2.41888432650478E-17
 [a.u.] -> [fs]                                             2.41888432650478E-02
 [a.u.] -> [J]                                              4.35974393937059E-18
 [a.u.] -> [N]                                              8.23872205491840E-08
 [a.u.] -> [K]                                              3.15774647902944E+05
 [a.u.] -> [kJ/mol]                                         2.62549961709828E+03
 [a.u.] -> [kcal/mol]                                       6.27509468713739E+02
 [a.u.] -> [Pa]                                             2.94210107994716E+13
 [a.u.] -> [bar]                                            2.94210107994716E+08
 [a.u.] -> [atm]                                            2.90362800883016E+08
 [a.u.] -> [eV]                                             2.72113838565563E+01
 [a.u.] -> [Hz]                                             6.57968392072181E+15
 [a.u.] -> [1/cm] (wave numbers)                            2.19474631370540E+05
 [a.u./Bohr**2] -> [1/cm]                                   5.14048714338585E+03
 

 CELL_TOP| Volume [angstrom^3]:                                       512.000000
 CELL_TOP| Vector a [angstrom     8.000     0.000     0.000   |a| =     8.000000
 CELL_TOP| Vector b [angstrom     0.000     8.000     0.000   |b| =     8.000000
 CELL_TOP| Vector c [angstrom     0.000     0.000     8.000   |c| =     8.000000
 CELL_TOP| Angle (b,c), alpha [degree]:                                90.000000
 CELL_TOP| Angle (a,c), beta  [degree]:                                90.000000
 CELL_TOP| Angle (a,b), gamma [degree]:                                90.000000
 CELL_TOP| Numerically orthorhombic:                                         YES
 CELL_TOP| Periodicity                                                      NONE
 
 GENERATE|  Preliminary Number of Bonds generated:                             0
 GENERATE|  Achieved consistency in connectivity generation.

 CELL| Volume [angstrom^3]:                                           512.000000
 CELL| Vector a [angstrom]:       8.000     0.000     0.000   |a| =     8.000000
 CELL| Vector b [angstrom]:       0.000     8.000     0.000   |b| =     8.000000
 CELL| Vector c [angstrom]:       0.000     0.000     8.000   |c| =     8.000000
 CELL| Angle (b,c), alpha [degree]:                                    90.000000
 CELL| Angle (a,c), beta  [degree]:                                    90.000000
 CELL| Angle (a,b), gamma [degree]:                                    90.000000
 CELL| Numerically orthorhombic:                                             YES
 CELL| Periodicity                                                          NONE

 CELL_REF| Volume [angstrom^3]:                                       512.000000
 CELL_REF| Vector a [angstrom     8.000     0.000     0.000   |a| =     8.000000
 CELL_REF| Vector b [angstrom     0.000     8.000     0.000   |b| =     8.000000
 CELL_REF| Vector c [angstrom     0.000     0.000     8.000   |c| =     8.000000
 CELL_REF| Angle (b,c), alpha [degree]:                                90.000000
 CELL_REF| Angle (a,c), beta  [degree]:                                90.000000
 CELL_REF| Angle (a,b), gamma [degree]:                                90.000000
 CELL_REF| Numerically orthorhombic:                                         YES
 CELL_REF| Periodicity                                                      NONE

 *******************************************************************************
 *******************************************************************************
 **                                                                           **
 **     #####                         ##              ##                      **
 **    ##   ##            ##          ##              ##                      **
 **   ##     ##                       ##            ######                    **
 **   ##     ##  ##   ##  ##   #####  ##  ##   ####   ##    #####    #####    **
 **   ##     ##  ##   ##  ##  ##      ## ##   ##      ##   ##   ##  ##   ##   **
 **   ##  ## ##  ##   ##  ##  ##      ####     ###    ##   ######   ######    **
 **    ##  ###   ##   ##  ##  ##      ## ##      ##   ##   ##       ##        **
 **     #######   #####   ##   #####  ##  ##  ####    ##    #####   ##        **
 **           ##                                                    ##        **
 **                                                                           **
 **                                                ... make the atoms dance   **
 **                                                                           **
 **            Copyright (C) by CP2K developers group (2000-2023)             **
 **                      J. Chem. Phys. 152, 194103 (2020)                    **
 **                                                                           **
 *******************************************************************************

 DFT| Spin restricted Kohn-Sham (RKS) calculation                            RKS
 DFT| Multiplicity                                                             1
 DFT| Number of spin states                                                    1
 DFT| Charge                                                                   0
 DFT| Self-interaction correction (SIC)                                       NO
 DFT| Cutoffs: density                                              1.000000E-10
 DFT|          gradient                                             1.000000E-10
 DFT|          tau                                                  1.000000E-10
 DFT|          cutoff_smoothing_range                               0.000000E+00
 DFT| XC density smoothing                                                  NONE
 DFT| XC derivatives                                                          PW

 FUNCTIONAL| PBE:
 FUNCTIONAL| J.P.Perdew, K.Burke, M.Ernzerhof, Phys. Rev. Letter, vol. 77, n 18,
 FUNCTIONAL|  pp. 3865-3868, (1996) {spin unpolarized}                          


 QS| Method:                                                                GAPW
 QS| Density plane wave grid type                        NON-SPHERICAL FULLSPACE
 QS| Number of grid levels:                                                    5
 QS| Density cutoff [a.u.]:                                                600.0
 QS| Multi grid cutoff [a.u.]: 1) grid level                               600.0
 QS|                           2) grid level                               200.0
 QS|                           3) grid level                                66.7
 QS|                           4) grid level                                22.2
 QS|                           5) grid level                                 7.4
 QS| Grid level progression factor:                                          3.0
 QS| Relative density cutoff [a.u.]:                                        40.0
 QS| Interaction thresholds: eps_pgf_orb:                                1.0E-30
 QS|                         eps_filter_matrix:                          0.0E+00
 QS|                         eps_core_charge:                            1.0E-17
 QS|                         eps_rho_gspace:                             1.0E-15
 QS|                         eps_rho_rspace:                             1.0E-15
 QS|                         eps_gvg_rspace:                             3.2E-08
 QS|                         eps_ppl:                                    1.0E-02
 QS|                         eps_ppnl:                                   3.2E-10
 QS| GAPW|      One center basis from orbital basis primitives
 QS| GAPW|                   eps_fit:                                    1.0E-04
 QS| GAPW|                   eps_iso:                                    1.0E-12
 QS| GAPW|                   eps_svd:                                    1.0E-08
 QS| GAPW|                   eps_cpc:                                    1.0E-15
 QS| GAPW|   atom-r-grid: quadrature:                                     GC_LOG
 QS| GAPW|      atom-s-grid:  max l :                                          6
 QS| GAPW|      max_l_rho0 :                                                   2


 ATOMIC KIND INFORMATION

  1. Atomic kind: I                                     Number of atoms:       1

     Orbital Basis Set                                                 def2-TZVP

       Number of orbital shell sets:                                          16
       Number of orbital shells:                                              16
       Number of primitive Cartesian functions:                               31
       Number of Cartesian basis functions:                                   59
       Number of spherical basis functions:                                   50
       Norm type:                                                              2

       Normalised Cartesian orbitals:

                        Set   Shell   Orbital            Exponent    Coefficient

                          1       1    1s             5899.579153       0.125221
                                                       898.542388       0.195305
                                                       200.372379       0.175448
                                                        31.418054      -0.402285
                                                        15.645988       5.813272

                          2       1    1s               11.815742       2.957264
                                                         6.461446       1.052061

                          3       1    1s                2.383807       1.367299

                          4       1    1s                1.171209       0.802391

                          5       1    1s                0.321159       0.304053

                          6       1    1s                0.123879       0.148819

                          7       1    1px             197.300305       3.365255
                                                        20.061411      17.288835
                                                         9.763146     -30.326841
                          7       1    1py             197.300305       3.365255
                                                        20.061411      17.288835
                                                         9.763146     -30.326841
                          7       1    1pz             197.300305       3.365255
                                                        20.061411      17.288835
                                                         9.763146     -30.326841

                          8       1    1px              12.984317      -1.358999
                                                         3.619950       2.182159
                                                         2.023227       1.777988
                                                         1.036749       0.373650
                          8       1    1py              12.984317      -1.358999
                                                         3.619950       2.182159
                                                         2.023227       1.777988
                                                         1.036749       0.373650
                          8       1    1pz              12.984317      -1.358999
                                                         3.619950       2.182159
                                                         2.023227       1.777988
                                                         1.036749       0.373650

                          9       1    1px               0.459378       0.539080
                          9       1    1py               0.459378       0.539080
                          9       1    1pz               0.459378       0.539080

                         10       1    1px               0.191165       0.180178
                         10       1    1py               0.191165       0.180178
                         10       1    1pz               0.191165       0.180178

                         11       1    1px               0.074879       0.055833
                         11       1    1py               0.074879       0.055833
                         11       1    1pz               0.074879       0.055833

                         12       1    1dx2            119.126717       6.247413
                                                        33.404240       5.588459
                                                        17.805918      -2.801520
                                                         4.899051       6.439930
                                                         2.451675       3.736904
                                                         1.182069       0.867777
                         12       1    1dxy            119.126717      10.820837
                                                        33.404240       9.679495
                                                        17.805918      -4.852375
                                                         4.899051      11.154287
                                                         2.451675       6.472508
                                                         1.182069       1.503035
                         12       1    1dxz            119.126717      10.820837
                                                        33.404240       9.679495
                                                        17.805918      -4.852375
                                                         4.899051      11.154287
                                                         2.451675       6.472508
                                                         1.182069       1.503035
                         12       1    1dy2            119.126717       6.247413
                                                        33.404240       5.588459
                                                        17.805918      -2.801520
                                                         4.899051       6.439930
                                                         2.451675       3.736904
                                                         1.182069       0.867777
                         12       1    1dyz            119.126717      10.820837
                                                        33.404240       9.679495
                                                        17.805918      -4.852375
                                                         4.899051      11.154287
                                                         2.451675       6.472508
                                                         1.182069       1.503035
                         12       1    1dz2            119.126717       6.247413
                                                        33.404240       5.588459
                                                        17.805918      -2.801520
                                                         4.899051       6.439930
                                                         2.451675       3.736904
                                                         1.182069       0.867777

                         13       1    1dx2              0.529231       0.540491
                         13       1    1dxy              0.529231       0.936159
                         13       1    1dxz              0.529231       0.936159
                         13       1    1dy2              0.529231       0.540491
                         13       1    1dyz              0.529231       0.936159
                         13       1    1dz2              0.529231       0.540491

                         14       1    1dx2              0.170000       0.074079
                         14       1    1dxy              0.170000       0.128309
                         14       1    1dxz              0.170000       0.128309
                         14       1    1dy2              0.170000       0.074079
                         14       1    1dyz              0.170000       0.128309
                         14       1    1dz2              0.170000       0.074079

                         15       1    1fx3              2.180000       8.501226
                         15       1    1fx2y             2.180000      19.009319
                         15       1    1fx2z             2.180000      19.009319
                         15       1    1fxy2             2.180000      19.009319
                         15       1    1fxyz             2.180000      32.925107
                         15       1    1fxz2             2.180000      19.009319
                         15       1    1fy3              2.180000       8.501226
                         15       1    1fy2z             2.180000      19.009319
                         15       1    1fyz2             2.180000      19.009319
                         15       1    1fz3              2.180000       8.501226

                         16       1    1fx3              0.441418       0.233812
                         16       1    1fx2y             0.441418       0.522820
                         16       1    1fx2z             0.441418       0.522820
                         16       1    1fxy2             0.441418       0.522820
                         16       1    1fxyz             0.441418       0.905551
                         16       1    1fxz2             0.441418       0.522820
                         16       1    1fy3              0.441418       0.233812
                         16       1    1fy2z             0.441418       0.522820
                         16       1    1fyz2             0.441418       0.522820
                         16       1    1fz3              0.441418       0.233812

       Atomic covalent radius [Angstrom]:                                  1.330

       Atomic van der Waals radius [Angstrom]:                             1.980

     The atoms of this atomic kind are PAW atoms (GAPW):
       Hard Gaussian function radius:                                      1.512
       Rho0 radius:                                                        1.512
       Maximum GTO radius used for PAW projector construction:            24.566

     GAPW Soft Basis Set                                          def2-TZVP_soft

       Number of orbital shell sets:                                          16
       Number of orbital shells:                                              16
       Number of primitive Cartesian functions:                               16
       Number of Cartesian basis functions:                                   59
       Number of spherical basis functions:                                   50
       Norm type:                                                              2

       Normalised Cartesian orbitals:

                        Set   Shell   Orbital            Exponent    Coefficient

                          1       1    1s         

                          2       1    1s         

                          3       1    1s                2.383807       1.367299

                          4       1    1s                1.171209       0.802391

                          5       1    1s                0.321159       0.304053

                          6       1    1s                0.123879       0.148819

                          7       1    1px        
                          7       1    1py        
                          7       1    1pz        

                          8       1    1px               3.619950       2.182159
                                                         2.023227       1.777988
                                                         1.036749       0.373650
                          8       1    1py               3.619950       2.182159
                                                         2.023227       1.777988
                                                         1.036749       0.373650
                          8       1    1pz               3.619950       2.182159
                                                         2.023227       1.777988
                                                         1.036749       0.373650

                          9       1    1px               0.459378       0.539080
                          9       1    1py               0.459378       0.539080
                          9       1    1pz               0.459378       0.539080

                         10       1    1px               0.191165       0.180178
                         10       1    1py               0.191165       0.180178
                         10       1    1pz               0.191165       0.180178

                         11       1    1px               0.074879       0.055833
                         11       1    1py               0.074879       0.055833
                         11       1    1pz               0.074879       0.055833

                         12       1    1dx2              2.451675       3.736904
                                                         1.182069       0.867777
                         12       1    1dxy              2.451675       6.472508
                                                         1.182069       1.503035
                         12       1    1dxz              2.451675       6.472508
                                                         1.182069       1.503035
                         12       1    1dy2              2.451675       3.736904
                                                         1.182069       0.867777
                         12       1    1dyz              2.451675       6.472508
                                                         1.182069       1.503035
                         12       1    1dz2              2.451675       3.736904
                                                         1.182069       0.867777

                         13       1    1dx2              0.529231       0.540491
                         13       1    1dxy              0.529231       0.936159
                         13       1    1dxz              0.529231       0.936159
                         13       1    1dy2              0.529231       0.540491
                         13       1    1dyz              0.529231       0.936159
                         13       1    1dz2              0.529231       0.540491

                         14       1    1dx2              0.170000       0.074079
                         14       1    1dxy              0.170000       0.128309
                         14       1    1dxz              0.170000       0.128309
                         14       1    1dy2              0.170000       0.074079
                         14       1    1dyz              0.170000       0.128309
                         14       1    1dz2              0.170000       0.074079

                         15       1    1fx3              2.180000       8.501226
                         15       1    1fx2y             2.180000      19.009319
                         15       1    1fx2z             2.180000      19.009319
                         15       1    1fxy2             2.180000      19.009319
                         15       1    1fxyz             2.180000      32.925107
                         15       1    1fxz2             2.180000      19.009319
                         15       1    1fy3              2.180000       8.501226
                         15       1    1fy2z             2.180000      19.009319
                         15       1    1fyz2             2.180000      19.009319
                         15       1    1fz3              2.180000       8.501226

                         16       1    1fx3              0.441418       0.233812
                         16       1    1fx2y             0.441418       0.522820
                         16       1    1fx2z             0.441418       0.522820
                         16       1    1fxy2             0.441418       0.522820
                         16       1    1fxyz             0.441418       0.905551
                         16       1    1fxz2             0.441418       0.522820
                         16       1    1fy3              0.441418       0.233812
                         16       1    1fy2z             0.441418       0.522820
                         16       1    1fyz2             0.441418       0.522820
                         16       1    1fz3              0.441418       0.233812

     AE Potential information for                                            ALL

       Description:                                       All-electron potential
                                          Krack, Parrinello, PCCP 2, 2105 (2000)

       Gaussian exponent of the core charge distribution:               2.000000
       Electronic configuration (s p d ...):                          10  23  20

  2. Atomic kind: H                                     Number of atoms:       1

     Orbital Basis Set                                                 def2-TZVP

       Number of orbital shell sets:                                           4
       Number of orbital shells:                                               4
       Number of primitive Cartesian functions:                                6
       Number of Cartesian basis functions:                                    6
       Number of spherical basis functions:                                    6
       Norm type:                                                              2

       Normalised Cartesian orbitals:

                        Set   Shell   Orbital            Exponent    Coefficient

                          1       1    1s               34.061341       0.255630
                                                         5.123575       0.461360
                                                         1.164663       0.681121

                          2       1    1s                0.327230       0.308355

                          3       1    1s                0.103072       0.129648

                          4       1    1px               0.800000       1.078456
                          4       1    1py               0.800000       1.078456
                          4       1    1pz               0.800000       1.078456

       Atomic covalent radius [Angstrom]:                                  0.320

       Atomic van der Waals radius [Angstrom]:                             1.090

     The atoms of this atomic kind are PAW atoms (GAPW):
       Hard Gaussian function radius:                                      1.200
       Rho0 radius:                                                        1.200
       Maximum GTO radius used for PAW projector construction:            24.566

     GAPW Soft Basis Set                                          def2-TZVP_soft

       Number of orbital shell sets:                                           4
       Number of orbital shells:                                               4
       Number of primitive Cartesian functions:                                5
       Number of Cartesian basis functions:                                    6
       Number of spherical basis functions:                                    6
       Norm type:                                                              2

       Normalised Cartesian orbitals:

                        Set   Shell   Orbital            Exponent    Coefficient

                          1       1    1s                5.123575       0.461360
                                                         1.164663       0.681121

                          2       1    1s                0.327230       0.308355

                          3       1    1s                0.103072       0.129648

                          4       1    1px               0.800000       1.078456
                          4       1    1py               0.800000       1.078456
                          4       1    1pz               0.800000       1.078456

     AE Potential information for                                            ALL

       Description:                                       All-electron potential
                                          Krack, Parrinello, PCCP 2, 2105 (2000)

       Gaussian exponent of the core charge distribution:              12.500000
       Electronic configuration (s p d ...):                           1   0   0


 MOLECULE KIND INFORMATION


 All atoms are their own molecule, skipping detailed information


 TOTAL NUMBERS AND MAXIMUM NUMBERS

  Total number of            - Atomic kinds:                                   2
                             - Atoms:                                          2
                             - Shell sets:                                    20
                             - Shells:                                        20
                             - Primitive Cartesian functions:                 37
                             - Cartesian basis functions:                     65
                             - Spherical basis functions:                     56

  Maximum angular momentum of the orbital basis functions:                     3


 MODULE QUICKSTEP: ATOMIC COORDINATES IN ANGSTROM

   Atom Kind Element         X             Y             Z       Z(eff)     Mass
      1    1 I    53      3.300000      4.000000      4.000000  53.0000 126.9045
      2    2 H     1      4.700000      4.000000      4.000000   1.0000   1.0079



 SCF PARAMETERS         Density guess:                                    ATOMIC
                        --------------------------------------------------------
                        max_scf:                                              20
                        max_scf_history:                                       0
                        max_diis:                                              4
                        --------------------------------------------------------
                        eps_scf:                                        1.00E-08
                        eps_scf_history:                                0.00E+00
                        eps_diis:                                       1.00E-01
                        eps_eigval:                                     1.00E-05
                        --------------------------------------------------------
                        level_shift [a.u.]:                             0.000000
                        --------------------------------------------------------
                        Outer loop SCF in use 
                        No variables optimised in outer loop
                        eps_scf                                         1.00E-08
                        max_scf                                               50
                        No outer loop optimization
                        step_size                                       5.00E-01

 PW_GRID| Information for grid number                                          1
 PW_GRID| Grid distributed over                                    64 processors
 PW_GRID| Real space group dimensions                                    64    1
 PW_GRID| the grid is blocked:                                                NO
 PW_GRID| Cutoff [a.u.]                                                   1200.0
 PW_GRID| spherical cutoff:                                                   NO
 PW_GRID|   Bounds   1           -120     119                Points:         240
 PW_GRID|   Bounds   2           -120     119                Points:         240
 PW_GRID|   Bounds   3           -120     119                Points:         240
 PW_GRID| Volume element (a.u.^3)  0.2499E-03     Volume (a.u.^3)      3455.1473
 PW_GRID| Grid span                                                    FULLSPACE
 PW_GRID|   Distribution                         Average         Max         Min
 PW_GRID|   G-Vectors                           216000.0      216000      216000
 PW_GRID|   G-Rays                                 900.0         900         900
 PW_GRID|   Real Space Points                   216000.0      230400      172800

 PW_GRID| Information for grid number                                          2
 PW_GRID| Number of the reference grid                                         1
 PW_GRID| Grid distributed over                                    64 processors
 PW_GRID| Real space group dimensions                                    64    1
 PW_GRID| the grid is blocked:                                                NO
 PW_GRID| Cutoff [a.u.]                                                    600.0
 PW_GRID| spherical cutoff:                                                   NO
 PW_GRID|   Bounds   1            -90      89                Points:         180
 PW_GRID|   Bounds   2            -90      89                Points:         180
 PW_GRID|   Bounds   3            -90      89                Points:         180
 PW_GRID| Volume element (a.u.^3)  0.5924E-03     Volume (a.u.^3)      3455.1473
 PW_GRID| Grid span                                                    FULLSPACE
 PW_GRID|   Distribution                         Average         Max         Min
 PW_GRID|   G-Vectors                            91125.0       91440       90720
 PW_GRID|   G-Rays                                 506.2         508         504
 PW_GRID|   Real Space Points                    91125.0       97200       64800

 PW_GRID| Information for grid number                                          3
 PW_GRID| Number of the reference grid                                         2
 PW_GRID| Grid distributed over                                    64 processors
 PW_GRID| Real space group dimensions                                    64    1
 PW_GRID| the grid is blocked:                                                NO
 PW_GRID| Cutoff [a.u.]                                                    200.0
 PW_GRID| spherical cutoff:                                                   NO
 PW_GRID|   Bounds   1            -50      49                Points:         100
 PW_GRID|   Bounds   2            -50      49                Points:         100
 PW_GRID|   Bounds   3            -50      49                Points:         100
 PW_GRID| Volume element (a.u.^3)  0.3455E-02     Volume (a.u.^3)      3455.1473
 PW_GRID| Grid span                                                    FULLSPACE
 PW_GRID|   Distribution                         Average         Max         Min
 PW_GRID|   G-Vectors                            15625.0       15800       15500
 PW_GRID|   G-Rays                                 156.2         158         155
 PW_GRID|   Real Space Points                    15625.0       20000       10000

 PW_GRID| Information for grid number                                          4
 PW_GRID| Number of the reference grid                                         2
 PW_GRID| Grid distributed over                                    64 processors
 PW_GRID| Real space group dimensions                                     8    8
 PW_GRID| the grid is blocked:                                                NO
 PW_GRID| Cutoff [a.u.]                                                     66.7
 PW_GRID| spherical cutoff:                                                   NO
 PW_GRID|   Bounds   1            -30      29                Points:          60
 PW_GRID|   Bounds   2            -30      29                Points:          60
 PW_GRID|   Bounds   3            -30      29                Points:          60
 PW_GRID| Volume element (a.u.^3)  0.1600E-01     Volume (a.u.^3)      3455.1473
 PW_GRID| Grid span                                                    FULLSPACE
 PW_GRID|   Distribution                         Average         Max         Min
 PW_GRID|   G-Vectors                             3375.0        3540        3240
 PW_GRID|   G-Rays                                  56.2          59          54
 PW_GRID|   Real Space Points                     3375.0        3840        2940

 PW_GRID| Information for grid number                                          5
 PW_GRID| Number of the reference grid                                         2
 PW_GRID| Grid distributed over                                    64 processors
 PW_GRID| Real space group dimensions                                     8    8
 PW_GRID| the grid is blocked:                                                NO
 PW_GRID| Cutoff [a.u.]                                                     22.2
 PW_GRID| spherical cutoff:                                                   NO
 PW_GRID|   Bounds   1            -18      17                Points:          36
 PW_GRID|   Bounds   2            -18      17                Points:          36
 PW_GRID|   Bounds   3            -18      17                Points:          36
 PW_GRID| Volume element (a.u.^3)  0.7406E-01     Volume (a.u.^3)      3455.1473
 PW_GRID| Grid span                                                    FULLSPACE
 PW_GRID|   Distribution                         Average         Max         Min
 PW_GRID|   G-Vectors                              729.0         792         684
 PW_GRID|   G-Rays                                  20.2          22          19
 PW_GRID|   Real Space Points                      729.0         900         576

 PW_GRID| Information for grid number                                          6
 PW_GRID| Number of the reference grid                                         2
 PW_GRID| Grid distributed over                                    64 processors
 PW_GRID| Real space group dimensions                                     8    8
 PW_GRID| the grid is blocked:                                                NO
 PW_GRID| Cutoff [a.u.]                                                      7.4
 PW_GRID| spherical cutoff:                                                   NO
 PW_GRID|   Bounds   1            -10       9                Points:          20
 PW_GRID|   Bounds   2            -10       9                Points:          20
 PW_GRID|   Bounds   3            -10       9                Points:          20
 PW_GRID| Volume element (a.u.^3)  0.4319         Volume (a.u.^3)      3455.1473
 PW_GRID| Grid span                                                    FULLSPACE
 PW_GRID|   Distribution                         Average         Max         Min
 PW_GRID|   G-Vectors                              125.0         140         100
 PW_GRID|   G-Rays                                   6.2           7           5
 PW_GRID|   Real Space Points                      125.0         180          80

 POISSON| Solver                                          Martyna-Tuckerman (MT)
 POISSON| MT| Alpha                                                        7.000
 POISSON| MT| Relative cutoff                                                2.0
 POISSON| Periodicity                                                       NONE

 RS_GRID| Information for grid number                                          2
 RS_GRID|   Bounds   1            -90      89                Points:         180
 RS_GRID|   Bounds   2            -90      89                Points:         180
 RS_GRID|   Bounds   3            -90      89                Points:         180
 RS_GRID| Real space fully replicated
 RS_GRID| Group size                                                           1

 RS_GRID| Information for grid number                                          3
 RS_GRID|   Bounds   1            -50      49                Points:         100
 RS_GRID|   Bounds   2            -50      49                Points:         100
 RS_GRID|   Bounds   3            -50      49                Points:         100
 RS_GRID| Real space fully replicated
 RS_GRID| Group size                                                           1

 RS_GRID| Information for grid number                                          4
 RS_GRID|   Bounds   1            -30      29                Points:          60
 RS_GRID|   Bounds   2            -30      29                Points:          60
 RS_GRID|   Bounds   3            -30      29                Points:          60
 RS_GRID| Real space fully replicated
 RS_GRID| Group size                                                           1

 RS_GRID| Information for grid number                                          5
 RS_GRID|   Bounds   1            -18      17                Points:          36
 RS_GRID|   Bounds   2            -18      17                Points:          36
 RS_GRID|   Bounds   3            -18      17                Points:          36
 RS_GRID| Real space fully replicated
 RS_GRID| Group size                                                           1

 RS_GRID| Information for grid number                                          6
 RS_GRID|   Bounds   1            -10       9                Points:          20
 RS_GRID|   Bounds   2            -10       9                Points:          20
 RS_GRID|   Bounds   3            -10       9                Points:          20
 RS_GRID| Real space fully replicated
 RS_GRID| Group size                                                           1

 BFGS| Use rational function optimization for step estimation:                NO
 BFGS| Use model Hessian for initial guess:                                  YES
 BFGS| Restart Hessian:                                                       NO
 BFGS| Trust radius:                                                       0.472

 *******************************************************************************
 ***                     STARTING GEOMETRY OPTIMIZATION                      ***
 ***                                   BFGS                                  ***
 *******************************************************************************

 Number of electrons:                                                         54
 Number of occupied orbitals:                                                 27
 Number of molecular orbitals:                                                27

 Number of orbital functions:                                                 56
 Number of independent orbital functions:                                     56

 Extrapolation method: initial_guess

 Atomic guess: The first density matrix is obtained in terms of atomic orbitals
               and electronic configurations assigned to each atomic kind

 Guess for atomic kind: I

 Electronic structure
    Total number of core electrons                                          0.00
    Total number of valence electrons                                      53.00
    Total number of electrons                                              53.00
    Multiplicity                                                   not specified
    S      2.00  2.00  2.00  2.00  2.00
    P      6.00  6.00  6.00  5.00
    D     10.00 10.00
 

 *******************************************************************************
                  Iteration          Convergence                     Energy [au]
 *******************************************************************************
                          1         33.6997                   -2599.756559702364
                          2         1.12051                   -2653.403674683851
                          3        0.201531                   -2654.140628646245
                          4        0.250747E-01               -2654.190586081578
                          5        0.669858E-03               -2654.191217641383
                          6        0.844023E-05               -2654.191218155315
                          7        0.160102E-06               -2654.191218155336

 Energy components [Hartree]           Total Energy ::        -2654.191218155336
                                        Band Energy ::        -1574.946463341832
                                     Kinetic Energy ::          516.211550421985
                                   Potential Energy ::        -3170.402768577321
                                      Virial (-V/T) ::            6.141673439863
                                        Core Energy ::        -3692.764941419901
                                          XC Energy ::          -59.696737257917
                                     Coulomb Energy ::         1098.270460522482

 Orbital energies  State     L     Occupation   Energy[a.u.]          Energy[eV]

                       1     0          2.000    -301.513628        -8204.603058
                       2     0          2.000     -69.876308        -1901.431042
                       3     0          2.000     -20.589599         -560.271478
                       4     0          2.000      -5.318870         -144.733815
                       5     0          2.000      -0.778336          -21.179595
 
                       1     1          6.000     -75.751895        -2061.313904
                       2     1          6.000     -17.406033         -473.642238
                       3     1          6.000      -2.813452          -76.557923
                       4     1          5.000      -0.181962           -4.951442
 
                       1     2         10.000     -18.455302         -502.194301
                       2     2         10.000      -1.750187          -47.625018
 

 Total Electron Density at R=0:                                       204.269359

 Guess for atomic kind: H

 Electronic structure
    Total number of core electrons                                          0.00
    Total number of valence electrons                                       1.00
    Total number of electrons                                               1.00
    Multiplicity                                                   not specified
    S      1.00
 

 *******************************************************************************
                  Iteration          Convergence                     Energy [au]
 *******************************************************************************
                          1        0.917598E-02                  -0.444895232610
                          2        0.101733E-02                  -0.444969959338
                          3        0.739292E-04                  -0.444971980690
                          4        0.601377E-07                  -0.444971989573

 Energy components [Hartree]           Total Energy ::           -0.444971989573
                                        Band Energy ::           -0.230448725171
                                     Kinetic Energy ::            0.428990089350
                                   Potential Energy ::           -0.873962078923
                                      Virial (-V/T) ::            2.037254707321
                                        Core Energy ::           -0.496265746842
                                          XC Energy ::           -0.234272986041
                                     Coulomb Energy ::            0.285566743311

 Orbital energies  State     L     Occupation   Energy[a.u.]          Energy[eV]

                       1     0          1.000      -0.230449           -6.270829
 

 Total Electron Density at R=0:                                         0.247098
 Re-scaling the density matrix to get the right number of electrons
                  # Electrons              Trace(P)               Scaling factor
                           54                54.000                        1.000


 SCF WAVEFUNCTION OPTIMIZATION

  ----------------------------------- OT ---------------------------------------
  Minimizer      : DIIS                : direct inversion
                                         in the iterative subspace
                                         using   7 DIIS vectors
                                         safer DIIS on
  Preconditioner : FULL_ALL            : diagonalization, state selective
  Precond_solver : DEFAULT
  stepsize       :    0.15000000                  energy_gap     :    0.08000000
  eps_taylor     :   0.10000E-15                  max_taylor     :             4
  ----------------------------------- OT ---------------------------------------

  Step     Update method      Time    Convergence         Total energy    Change
  ------------------------------------------------------------------------------
     1 OT DIIS     0.15E+00   25.7     0.68642966     -2589.1458989922 -2.59E+03
     2 OT DIIS     0.15E+00   18.2     0.18483372     -2650.2687070566 -6.11E+01
     3 OT DIIS     0.15E+00   18.2     0.07285555     -2654.9637211794 -4.70E+00
     4 OT DIIS     0.15E+00   17.8     0.03950366     -2655.8252592694 -8.62E-01
     5 OT DIIS     0.15E+00   17.2     0.02746603     -2656.0197083707 -1.94E-01
     6 OT DIIS     0.15E+00   18.0     0.01205000     -2656.4922852450 -4.73E-01
     7 OT SD       0.15E+00   18.0     0.01106845     -2656.5642181561 -7.19E-02
     8 OT SD       0.15E+00   17.7     0.01163757     -2656.5919136795 -2.77E-02
     9 OT SD       0.15E+00   17.4     0.01274324     -2656.6238409843 -3.19E-02
    10 OT SD       0.15E+00   17.0     0.01426112     -2656.6627426927 -3.89E-02
    11 OT SD       0.15E+00   16.5     0.01619002     -2656.7119032279 -4.92E-02
    12 OT SD       0.15E+00   16.5     0.01855396     -2656.7756216031 -6.37E-02
    13 OT SD       0.15E+00   17.5     0.02138312     -2656.8595957473 -8.40E-02
    14 OT SD       0.15E+00   17.5     0.02470452     -2656.9713181975 -1.12E-01
    15 OT SD       0.15E+00   18.4     0.02853281     -2657.1204630091 -1.49E-01
    16 OT SD       0.15E+00   18.6     0.03285674     -2657.3191528473 -1.99E-01
    17 OT SD       0.15E+00   18.1     0.03762072     -2657.5818970719 -2.63E-01
    18 OT SD       0.15E+00   18.4     0.04270235     -2657.9248656007 -3.43E-01
    19 OT SD       0.15E+00   16.8     0.04789094     -2658.3640745070 -4.39E-01
    20 OT SD       0.15E+00   17.3     0.05287708     -2658.9121464238 -5.48E-01

  Leaving inner SCF loop after reaching    20 steps.


  Electronic density on regular grids:        -61.1729639101       -7.1729639101
  Core density on regular grids:               54.0000000000       -0.0000000000
  Hard and soft densities (Lebedev):          -55.9107360105      -63.0836994778
  Total Rho_soft + Rho1_hard - Rho1_soft      -54.0000004428
  Total charge density (r-space):              -0.0000004428
  Total Rho_soft + Rho0_soft (g-space):        -0.0000006664

  Overlap energy of the core charge distribution:               0.00001798794625
  Self energy of the core charge distribution:              -1586.21901414451713
  Core Hamiltonian energy:                                  -1099.06084615679060
  Hartree energy:                                            1276.13346514865134
  Exchange-correlation energy:                                -80.60827434163984

  GAPW| Exc from hard and soft atomic rho1:                    19.49768714274193
  GAPW| local Eh = 1 center integrals:                      -1188.65518206017123

  Total energy:                                             -2658.91214642377963

  outer SCF iter =    1 RMS gradient =   0.53E-01 energy =      -2658.9121464238

  ----------------------------------- OT ---------------------------------------
  Minimizer      : DIIS                : direct inversion
                                         in the iterative subspace
                                         using   7 DIIS vectors
                                         safer DIIS on
  Preconditioner : FULL_ALL            : diagonalization, state selective
  Precond_solver : DEFAULT
  stepsize       :    0.15000000                  energy_gap     :    0.08000000
  eps_taylor     :   0.10000E-15                  max_taylor     :             4
  ----------------------------------- OT ---------------------------------------

  Step     Update method      Time    Convergence         Total energy    Change
  ------------------------------------------------------------------------------
     1 OT DIIS     0.15E+00   45.0     0.34395275     -2659.5737891201 -6.62E-01
     2 OT DIIS     0.15E+00   18.6     0.42976332     -2661.9328456437 -2.36E+00
     3 OT SD       0.15E+00   18.2     0.47406943     -2676.1523173495 -1.42E+01
     4 OT DIIS     0.15E+00   19.0     0.53137513     -2671.8884935972  4.26E+00
     5 OT SD       0.15E+00   17.7     0.34854437     -2689.0451625304 -1.72E+01
     6 OT DIIS     0.15E+00   18.7     0.23373076     -2693.8680138032 -4.82E+00
     7 OT DIIS     0.15E+00   18.1     0.28328524     -2691.3992053898  2.47E+00
     8 OT DIIS     0.15E+00   19.0     0.26339116     -2692.1372380057 -7.38E-01
     9 OT DIIS     0.15E+00   18.4     0.29059532     -2692.6207455450 -4.84E-01
    10 OT DIIS     0.15E+00   18.2     0.21546845     -2692.7553182296 -1.35E-01
    11 OT DIIS     0.15E+00   19.3     0.14521733     -2695.7369039762 -2.98E+00
    12 OT DIIS     0.15E+00   18.3     0.11052506     -2697.0475874469 -1.31E+00
    13 OT DIIS     0.15E+00   18.7     0.10900923     -2697.4361043573 -3.89E-01
    14 OT DIIS     0.15E+00   19.4     0.07494706     -2698.4303413011 -9.94E-01
    15 OT DIIS     0.15E+00   18.1     0.04636439     -2698.7110956771 -2.81E-01
    16 OT DIIS     0.15E+00   17.8     0.02066124     -2698.9221577870 -2.11E-01
    17 OT DIIS     0.15E+00   19.5     0.01488634     -2699.0410625456 -1.19E-01
    18 OT DIIS     0.15E+00   19.6     0.01254810     -2699.1075853131 -6.65E-02
    19 OT DIIS     0.15E+00   18.1     0.01148172     -2699.1589419006 -5.14E-02
    20 OT DIIS     0.15E+00   17.8     0.01049738     -2699.2114836328 -5.25E-02

  Leaving inner SCF loop after reaching    20 steps.


  Electronic density on regular grids:        -58.4956782937       -4.4956782937
  Core density on regular grids:               54.0000000000       -0.0000000000
  Hard and soft densities (Lebedev):          -55.2516924340      -59.7473704337
  Total Rho_soft + Rho1_hard - Rho1_soft      -54.0000002940
  Total charge density (r-space):              -0.0000002940
  Total Rho_soft + Rho0_soft (g-space):        -0.0000005084

  Overlap energy of the core charge distribution:               0.00001798794625
  Self energy of the core charge distribution:              -1586.21901414451713
  Core Hamiltonian energy:                                  -1065.50983524430831
  Hartree energy:                                            1151.94000192088220
  Exchange-correlation energy:                                -82.58377083908215

  GAPW| Exc from hard and soft atomic rho1:                    11.15130419034434
  GAPW| local Eh = 1 center integrals:                      -1127.99018750405048

  Total energy:                                             -2699.21148363278508

  outer SCF iter =    2 RMS gradient =   0.10E-01 energy =      -2699.2114836328

  ----------------------------------- OT ---------------------------------------
  Minimizer      : DIIS                : direct inversion
                                         in the iterative subspace
                                         using   7 DIIS vectors
                                         safer DIIS on
  Preconditioner : FULL_ALL            : diagonalization, state selective
  Precond_solver : DEFAULT
  stepsize       :    0.15000000                  energy_gap     :    0.08000000
  eps_taylor     :   0.10000E-15                  max_taylor     :             4
  ----------------------------------- OT ---------------------------------------

  Step     Update method      Time    Convergence         Total energy    Change
  ------------------------------------------------------------------------------
     1 OT DIIS     0.15E+00   46.3     0.05797083     -2699.2827393898 -7.13E-02
     2 OT DIIS     0.15E+00   17.6     0.04676456     -2699.6061625359 -3.23E-01
     3 OT DIIS     0.15E+00   18.2     0.02182063     -2699.7215035628 -1.15E-01
     4 OT DIIS     0.15E+00   18.1     0.00638445     -2699.7589530977 -3.74E-02
     5 OT DIIS     0.15E+00   17.6     0.00315226     -2699.7625272902 -3.57E-03
     6 OT DIIS     0.15E+00   17.0     0.00141345     -2699.7641595663 -1.63E-03
     7 OT DIIS     0.15E+00   17.6     0.00092232     -2699.7647188797 -5.59E-04
     8 OT DIIS     0.15E+00   16.8     0.00088954     -2699.7651807247 -4.62E-04
     9 OT DIIS     0.15E+00   17.5     0.00085657     -2699.7654113232 -2.31E-04
    10 OT SD       0.15E+00   18.1     0.00086249     -2699.7657777928 -3.66E-04
    11 OT SD       0.15E+00   17.5     0.00086814     -2699.7662353997 -4.58E-04
    12 OT SD       0.15E+00   17.4     0.00087377     -2699.7667254421 -4.90E-04
    13 OT DIIS     0.15E+00   17.7     0.00088410     -2699.7672462444 -5.21E-04
    14 OT DIIS     0.15E+00   17.9     0.00062964     -2699.7747122592 -7.47E-03
    15 OT DIIS     0.15E+00   17.4     0.00044833     -2699.7786930362 -3.98E-03
    16 OT DIIS     0.15E+00   17.4     0.00039348     -2699.7820504897 -3.36E-03
    17 OT DIIS     0.15E+00   18.0     0.00133305     -2699.7937707385 -1.17E-02
    18 OT DIIS     0.15E+00   17.2     0.00064387     -2699.7827425591  1.10E-02
    19 OT DIIS     0.15E+00   17.2     0.00017299     -2699.7914520771 -8.71E-03
    20 OT DIIS     0.15E+00   17.4     0.00032203     -2699.7979442319 -6.49E-03

  Leaving inner SCF loop after reaching    20 steps.


  Electronic density on regular grids:        -58.3141647203       -4.3141647203
  Core density on regular grids:               54.0000000000       -0.0000000000
  Hard and soft densities (Lebedev):          -55.9033561785      -60.2175214538
  Total Rho_soft + Rho1_hard - Rho1_soft      -53.9999994449
  Total charge density (r-space):               0.0000005551
  Total Rho_soft + Rho0_soft (g-space):         0.0000003411

  Overlap energy of the core charge distribution:               0.00001798794625
  Self energy of the core charge distribution:              -1586.21901414451713
  Core Hamiltonian energy:                                  -1065.87837812669568
  Hartree energy:                                            1152.28184860135002
  Exchange-correlation energy:                                -82.20523882055868

  GAPW| Exc from hard and soft atomic rho1:                    10.60113323993339
  GAPW| local Eh = 1 center integrals:                      -1128.37831296931313

  Total energy:                                             -2699.79794423185513

  outer SCF iter =    3 RMS gradient =   0.32E-03 energy =      -2699.7979442319

  ----------------------------------- OT ---------------------------------------
  Minimizer      : DIIS                : direct inversion
                                         in the iterative subspace
                                         using   7 DIIS vectors
                                         safer DIIS on
  Preconditioner : FULL_ALL            : diagonalization, state selective
  Precond_solver : DEFAULT
  stepsize       :    0.15000000                  energy_gap     :    0.08000000
  eps_taylor     :   0.10000E-15                  max_taylor     :             4
  ----------------------------------- OT ---------------------------------------

  Step     Update method      Time    Convergence         Total energy    Change
  ------------------------------------------------------------------------------
     1 OT DIIS     0.15E+00   44.6     0.06495427     -2699.8030990421 -5.15E-03
     2 OT DIIS     0.15E+00   18.2     0.05704363     -2757.7022067372 -5.79E+01
     3 OT DIIS     0.15E+00   17.3     0.03128703     -2789.6642167751 -3.20E+01
     4 OT DIIS     0.15E+00   18.0     0.01740635     -2749.5828224377  4.01E+01
     5 OT DIIS     0.15E+00   17.1     0.01159776     -2744.8516419258  4.73E+00
     6 OT DIIS     0.15E+00   17.4     0.00972209     -2814.2564123194 -6.94E+01
     7 OT SD       0.15E+00   17.2     0.01835245     -3007.8690319740 -1.94E+02
     8 OT DIIS     0.15E+00   17.1     0.01261082     -3040.2728111512 -3.24E+01
     9 OT SD       0.15E+00   17.5     0.01226243     -3074.2451496315 -3.40E+01
    10 OT SD       0.15E+00   16.9     0.01054819     -3097.3489800963 -2.31E+01
    11 OT SD       0.15E+00   17.5     0.00934711     -3116.4270364625 -1.91E+01
    12 OT SD       0.15E+00   17.1     0.00802942     -3131.3765254907 -1.49E+01
    13 OT DIIS     0.15E+00   17.6     0.00675959     -3142.5871011020 -1.12E+01
    14 OT DIIS     0.15E+00   17.9     0.00163438     -3168.6177380372 -2.60E+01
    15 OT DIIS     0.15E+00   17.0     0.00235748     -3166.9037384780  1.71E+00
    16 OT SD       0.15E+00   17.2     0.00091445     -3169.8054671939 -2.90E+00
    17 OT SD       0.15E+00   17.4     0.00090158     -3170.4816682304 -6.76E-01
    18 OT DIIS     0.15E+00   17.3     0.00089945     -3171.1547923468 -6.73E-01
    19 OT DIIS     0.15E+00   16.9     0.00127825     -3171.9632962594 -8.09E-01
    20 OT SD       0.15E+00   17.9     0.00089732     -3174.5013449361 -2.54E+00

  Leaving inner SCF loop after reaching    20 steps.


  Electronic density on regular grids:        -58.6083219035       -4.6083219035
  Core density on regular grids:               54.0000000000       -0.0000000000
  Hard and soft densities (Lebedev):          -56.3375523568      -60.6602214459
  Total Rho_soft + Rho1_hard - Rho1_soft      -54.2856528144
  Total charge density (r-space):              -0.2856528144
  Total Rho_soft + Rho0_soft (g-space):        -0.2856530384

  Overlap energy of the core charge distribution:               0.00001798794625
  Self energy of the core charge distribution:              -1586.21901414451713
  Core Hamiltonian energy:                                  -1549.67802813804087
  Hartree energy:                                            1140.60561574155327
  Exchange-correlation energy:                                -82.78965262529783

  GAPW| Exc from hard and soft atomic rho1:                     7.42487100864634
  GAPW| local Eh = 1 center integrals:                      -1103.84515476638035

  Total energy:                                             -3174.50134493609039

  outer SCF iter =    4 RMS gradient =   0.90E-03 energy =      -3174.5013449361

  ----------------------------------- OT ---------------------------------------
  Minimizer      : DIIS                : direct inversion
                                         in the iterative subspace
                                         using   7 DIIS vectors
                                         safer DIIS on
  Preconditioner : FULL_ALL            : diagonalization, state selective
  Precond_solver : DEFAULT
  stepsize       :    0.15000000                  energy_gap     :    0.08000000
  eps_taylor     :   0.10000E-15                  max_taylor     :             4
  ----------------------------------- OT ---------------------------------------

  Step     Update method      Time    Convergence         Total energy    Change
  ------------------------------------------------------------------------------
     1 OT DIIS     0.15E+00   42.9     0.00188269     -3175.1588532438 -6.58E-01
     2 OT DIIS     0.15E+00   13.9     0.00188162     -3175.0985047371  6.03E-02
     3 OT DIIS     0.15E+00   14.4     0.00188116     -3174.9840946651  1.14E-01
     4 OT DIIS     0.15E+00   15.2     0.00188066     -3174.6821353753  3.02E-01
     5 OT SD       0.15E+00   17.8     0.00187709     -3174.2616836903  4.20E-01
     6 OT SD       0.15E+00   17.9     0.00187682     -3174.2750385743 -1.34E-02
     7 OT DIIS     0.15E+00   17.2     0.00187657     -3174.2903776448 -1.53E-02
     8 OT SD       0.15E+00   17.6     0.00193033     -3174.2567401009  3.36E-02
     9 OT SD       0.15E+00   18.0     0.00190956     -3174.2785403375 -2.18E-02
    10 OT DIIS     0.15E+00   19.0     0.00190095     -3174.3023065548 -2.38E-02
    11 OT SD       0.15E+00   16.5     0.00179917     -3199.1023480280 -2.48E+01
    12 OT DIIS     0.15E+00   17.0     0.00179070     -3199.3923465818 -2.90E-01
    13 OT DIIS     0.15E+00   17.0     0.00146517     -3354.3802022777 -1.55E+02
    14 OT SD       0.15E+00   17.3     0.00126340     -3447.6098972274 -9.32E+01
    15 OT SD       0.15E+00   17.1     0.00123832     -3447.9109727115 -3.01E-01
    16 OT DIIS     0.15E+00   16.8     0.00122086     -3448.2115028891 -3.01E-01
    17 OT DIIS     0.15E+00   17.1     0.00101959     -3496.7592534095 -4.85E+01
    18 OT DIIS     0.15E+00   17.3     0.00094392     -3523.8773819726 -2.71E+01
    19 OT DIIS     0.15E+00   16.8     0.00089936     -3536.2524065901 -1.24E+01
    20 OT DIIS     0.15E+00   17.7     0.00085879     -3547.8216439314 -1.16E+01

  Leaving inner SCF loop after reaching    20 steps.


  Electronic density on regular grids:        -59.9692967546       -5.9692967546
  Core density on regular grids:               54.0000000000       -0.0000000000
  Hard and soft densities (Lebedev):          -56.0147423731      -62.0132680806
  Total Rho_soft + Rho1_hard - Rho1_soft      -53.9707710471
  Total charge density (r-space):               0.0292289529
  Total Rho_soft + Rho0_soft (g-space):         0.0292287103

  Overlap energy of the core charge distribution:               0.00001798794625
  Self energy of the core charge distribution:              -1586.21901414451713
  Core Hamiltonian energy:                                  -1937.60420810068763
  Hartree energy:                                            1172.10661068913350
  Exchange-correlation energy:                                -86.91899315227155

  GAPW| Exc from hard and soft atomic rho1:                     8.30590273770088
  GAPW| local Eh = 1 center integrals:                      -1117.49195994871729

  Total energy:                                             -3547.82164393141329

  outer SCF iter =    5 RMS gradient =   0.86E-03 energy =      -3547.8216439314

  ----------------------------------- OT ---------------------------------------
  Minimizer      : DIIS                : direct inversion
                                         in the iterative subspace
                                         using   7 DIIS vectors
                                         safer DIIS on
  Preconditioner : FULL_ALL            : diagonalization, state selective
  Precond_solver : DEFAULT
  stepsize       :    0.15000000                  energy_gap     :    0.08000000
  eps_taylor     :   0.10000E-15                  max_taylor     :             4
  ----------------------------------- OT ---------------------------------------

  Step     Update method      Time    Convergence         Total energy    Change
  ------------------------------------------------------------------------------
     1 OT DIIS     0.15E+00   42.4     0.00277209     -3547.2041534492  6.17E-01
     2 OT DIIS     0.15E+00   12.5     0.00261435     -3545.5231964345  1.68E+00
     3 OT DIIS     0.15E+00   14.9     0.00253275     -3542.2758943127  3.25E+00
     4 OT DIIS     0.15E+00   14.6     0.00209997     -3494.7387007207  4.75E+01
     5 OT DIIS     0.15E+00   16.0     0.00207090     -3491.8921296911  2.85E+00
     6 OT SD       0.15E+00   17.8     0.00204784     -3481.0105515510  1.09E+01
     7 OT SD       0.15E+00   17.3     0.00204611     -3479.3023355219  1.71E+00
     8 OT SD       0.15E+00   17.1     0.00204829     -3477.5938602950  1.71E+00
     9 OT SD       0.15E+00   17.9     0.00205132     -3475.8850790662  1.71E+00
    10 OT SD       0.15E+00   17.5     0.00205467     -3474.1759807479  1.71E+00
    11 OT SD       0.15E+00   17.8     0.00205821     -3472.4665694831  1.71E+00
    12 OT SD       0.15E+00   17.4     0.00206193     -3470.7568557914  1.71E+00
    13 OT SD       0.15E+00   17.7     0.00206580     -3469.0468528425  1.71E+00
    14 OT SD       0.15E+00   17.6     0.00206980     -3467.3365749031  1.71E+00
    15 OT SD       0.15E+00   17.6     0.00207393     -3465.6260366918  1.71E+00
    16 OT SD       0.15E+00   17.5     0.00207819     -3463.9152531114  1.71E+00
    17 OT SD       0.15E+00   17.8     0.00208255     -3462.2042391368  1.71E+00
    18 OT SD       0.15E+00   17.5     0.00208701     -3460.4930097692  1.71E+00
    19 OT SD       0.15E+00   17.5     0.00209157     -3458.7815800158  1.71E+00
    20 OT SD       0.15E+00   17.6     0.00209622     -3457.0699648814  1.71E+00

  Leaving inner SCF loop after reaching    20 steps.


  Electronic density on regular grids:        -59.8287598734       -5.8287598734
  Core density on regular grids:               54.0000000000       -0.0000000000
  Hard and soft densities (Lebedev):          -55.6829394306      -61.8576977265
  Total Rho_soft + Rho1_hard - Rho1_soft      -53.6540015775
  Total charge density (r-space):               0.3459984225
  Total Rho_soft + Rho0_soft (g-space):         0.3459981812

  Overlap energy of the core charge distribution:               0.00001798794625
  Self energy of the core charge distribution:              -1586.21901414451713
  Core Hamiltonian energy:                                  -1846.11013750249504
  Hartree energy:                                            1190.10174674126711
  Exchange-correlation energy:                                -86.55010375198107

  GAPW| Exc from hard and soft atomic rho1:                     9.47165086204959
  GAPW| local Eh = 1 center integrals:                      -1137.76412507368605

  Total energy:                                             -3457.06996488141658

  outer SCF iter =    6 RMS gradient =   0.21E-02 energy =      -3457.0699648814

  ----------------------------------- OT ---------------------------------------
  Minimizer      : DIIS                : direct inversion
                                         in the iterative subspace
                                         using   7 DIIS vectors
                                         safer DIIS on
  Preconditioner : FULL_ALL            : diagonalization, state selective
  Precond_solver : DEFAULT
  stepsize       :    0.15000000                  energy_gap     :    0.08000000
  eps_taylor     :   0.10000E-15                  max_taylor     :             4
  ----------------------------------- OT ---------------------------------------

  Step     Update method      Time    Convergence         Total energy    Change
  ------------------------------------------------------------------------------
     1 OT DIIS     0.15E+00   43.5     0.02622379     -3455.3581793651  1.71E+00
     2 OT DIIS     0.15E+00   14.9     0.01851692     -3453.2215099070  2.14E+00
     3 OT DIIS     0.15E+00   17.0     0.01566834     -3448.9825658206  4.24E+00
     4 OT DIIS     0.15E+00   17.1     0.00832223     -3329.1596082763  1.20E+02
     5 OT DIIS     0.15E+00   17.3     0.00620516     -3335.3163541459 -6.16E+00
     6 OT SD       0.15E+00   18.1     0.00602625     -3336.5485015242 -1.23E+00
     7 OT SD       0.15E+00   17.3     0.00580205     -3334.6575937969  1.89E+00
     8 OT DIIS     0.15E+00   17.9     0.00575325     -3332.7933076043  1.86E+00
     9 OT SD       0.15E+00   17.4     0.01258682     -3244.7759868070  8.80E+01
    10 OT DIIS     0.15E+00   17.3     0.00708328     -3243.9682961466  8.08E-01
    11 OT DIIS     0.15E+00   17.9     0.00547122     -3215.5834459595  2.84E+01
    12 OT DIIS     0.15E+00   17.9     0.00447097     -3217.4300680579 -1.85E+00
    13 OT SD       0.15E+00   18.4     0.00444604     -3232.0935687561 -1.47E+01
    14 OT DIIS     0.15E+00   18.9     0.00431833     -3233.1160249242 -1.02E+00
    15 OT DIIS     0.15E+00   18.8     0.00405823     -3239.8515092878 -6.74E+00
[...]
 -                                                                             -
 -                                DBCSR STATISTICS                             -
 -                                                                             -
 -------------------------------------------------------------------------------
 COUNTER                                    TOTAL       BLAS       SMM       ACC
 flops     6 x     6 x     4                35424       0.0%    100.0%      0.0%
 flops     4 x     4 x     6                83328       0.0%    100.0%      0.0%
 flops     6 x    17 x     4               100368       0.0%    100.0%      0.0%
 flops     6 x     4 x     4               103680       0.0%    100.0%      0.0%
 flops     4 x     4 x     4               123776       0.0%    100.0%      0.0%
 flops     6 x     4 x     6               154368       0.0%    100.0%      0.0%
 flops     4 x     4 x    17               236096       0.0%    100.0%      0.0%
 flops    17 x    17 x     4               284376       0.0%    100.0%      0.0%
 flops    17 x     4 x     4               293760       0.0%    100.0%      0.0%
 flops    17 x     4 x     6               437376       0.0%    100.0%      0.0%
 flops     6 x     4 x    17               437376       0.0%    100.0%      0.0%
 flops    17 x     4 x    17              1239232       0.0%    100.0%      0.0%
 flops inhomo. stacks                           0       0.0%      0.0%      0.0%
 flops total                         3.529160E+06       0.0%    100.0%      0.0%
 flops max/rank                      2.697944E+06       0.0%    100.0%      0.0%
 matmuls inhomo. stacks                         0       0.0%      0.0%      0.0%
 matmuls total                               5428       0.0%    100.0%      0.0%
 number of processed stacks                  5428       0.0%    100.0%      0.0%
 average stack size                                     0.0       1.0       0.0
 marketing flops                     3.636888E+06
 -------------------------------------------------------------------------------
 # multiplications                           2610
 max memory usage/rank             632.336384E+06
 # max total images/rank                        1
 # max 3D layers                                1
 # MPI messages exchanged                 2338560
 MPI messages size (bytes):
  total size                        29.378048E+06
  min size                           0.000000E+00
  max size                           2.312000E+03
  average size                      12.562452E+00
 MPI breakdown and total messages size (bytes):
             size <=      128             2292892                  2216704
       128 < size <=     8192               45668                 27161344
      8192 < size <=    32768                   0                        0
     32768 < size <=   131072                   0                        0
    131072 < size <=  4194304                   0                        0
   4194304 < size <= 16777216                   0                        0
  16777216 < size                               0                        0
 -------------------------------------------------------------------------------
 -                                                                             -
 -                      DBCSR MESSAGE PASSING PERFORMANCE                      -
 -                                                                             -
 -------------------------------------------------------------------------------
 ROUTINE             CALLS      AVE VOLUME [Bytes]
 MP_Bcast               13                     12.
 MP_Allreduce        13670                      8.
 MP_Alltoall         10088                   5531.
 MP_ISend            83480                    100.
 MP_IRecv            83480                     66.
 -------------------------------------------------------------------------------

 -------------------------------------------------------------------------------
 -                                                                             -
 -                                DBM STATISTICS                               -
 -                                                                             -
 -------------------------------------------------------------------------------
    M  x    N  x    K                                          COUNT     PERCENT
 -------------------------------------------------------------------------------

 -------------------------------------------------------------------------------
 -                                                                             -
 -                                GRID STATISTICS                              -
 -                                                                             -
 -------------------------------------------------------------------------------
 LP    KERNEL             BACKEND                              COUNT     PERCENT
 2     collocate ortho    CPU                                   2875      20.48%
 2     integrate ortho    CPU                                   2650      18.88%
 3     integrate ortho    CPU                                   2320      16.53%
 3     collocate ortho    CPU                                   2300      16.38%
 4     integrate ortho    CPU                                   1856      13.22%
 4     collocate ortho    CPU                                   1840      13.11%
 5     integrate ortho    CPU                                    128       0.91%
 0     collocate general  CPU                                     36       0.26%
 0     integrate general  CPU                                     18       0.13%
 1     integrate general  CPU                                     16       0.11%
 -------------------------------------------------------------------------------

 MEMORY| Estimated peak process memory [MiB]                                 604

 -------------------------------------------------------------------------------
 ----                             MULTIGRID INFO                            ----
 -------------------------------------------------------------------------------
 count for grid        1:         119157          cutoff [a.u.]          600.00
 count for grid        2:         155966          cutoff [a.u.]          200.00
 count for grid        3:         316038          cutoff [a.u.]           66.67
 count for grid        4:         141539          cutoff [a.u.]           22.22
 count for grid        5:          20489          cutoff [a.u.]            7.41
 total gridlevel count  :         753189

 -------------------------------------------------------------------------------
 -                                                                             -
 -                         MESSAGE PASSING PERFORMANCE                         -
 -                                                                             -
 -------------------------------------------------------------------------------

 ROUTINE             CALLS      AVE VOLUME [Bytes]
 MP_Group                6
 MP_Bcast              826                 343661.
 MP_Allreduce         3119                    428.
 MP_Sync                87
 MP_Alltoall          2872                3029342.
 MP_SendRecv         37359                 213064.
 MP_ISendRecv        36981                 212253.
 MP_Wait             36981
 MP_comm_split          82
 -------------------------------------------------------------------------------


 -------------------------------------------------------------------------------
 -                                                                             -
 -                           R E F E R E N C E S                               -
 -                                                                             -
 -------------------------------------------------------------------------------
 
 CP2K version 2023.2 (Development Version), the CP2K developers group (2023).
 CP2K is freely available from https://www.cp2k.org/ .

 Kuehne,Thomas D.; Iannuzzi,Marcella; Del Ben,Mauro;
 Rybkin,Vladimir V.; Seewald,Patrick; Stein,Frederick; Laino,Teodoro;
 Khaliullin,Rustam Z.; Schuett,Ole; Schiffmann,Florian; Golze,Dorothea;
 Wilhelm,Jan; Chulkov,Sergey; Bani-Hashemian,Mohammad Hossein;
 Weber,Valery; Borstnik,Urban; Taillefumier,Mathieu;
 Jakobovits,Alice Shoshana; Lazzaro,Alfio; Pabst,Hans; Mueller,Tiziano;
 Schade,Robert; Guidon,Manuel; Andermatt,Samuel; Holmberg,Nico;
 Schenter,Gregory K.; Hehn,Anna; Bussy,Augustin; Belleflamme,Fabian;
 Tabacchi,Gloria; Gloess,Andreas; Lass,Michael; Bethune,Iain;
 Mundy,Christopher J.; Plessl,Christian; Watkins,Matt;
 VandeVondele,Joost; Krack,Matthias; Hutter,Juerg. 
 The Journal of Chemical Physics, 152 (19), (2020). 
 CP2K: An electronic structure and molecular dynamics software package -
 Quickstep: Efficient and accurate electronic structure calculations.
 https://doi.org/10.1063/5.0007045

 Schuett, Ole; Messmer, Peter; Hutter, Juerg; VandeVondele, Joost. 
 Electronic Structure Calculations on Graphics Processing Units, John
 Wiley & Sons, Ltd, 173-190 (2016). 
 GPU-Accelerated Sparse Matrix-Matrix Multiplication for
 Linear Scaling Density Functional Theory.
 https://doi.org/10.1002/9781118670712.ch8

 Heinecke, A; Henry, G; Hutchinson, M; Pabst, H. 
 Proceedings of Intl. Supercomputing Conference, 981-991 (2016). 
 LIBXSMM: Accelerating Small Matrix Multiplications
 by Runtime Code Generation.
 https://doi.org/10.1109/SC.2016.83

 Borstnik, U; VandeVondele, J; Weber, V; Hutter, J. 
 PARALLEL COMPUTING, 40 (5-6), 47-58 (2014). 
 Sparse matrix multiplication: The distributed block-compressed sparse
 row library.
 https://doi.org/10.1016/j.parco.2014.03.012

 Hutter, J; Iannuzzi, M; Schiffmann, F; VandeVondele, J. 
 WIREs Comput Mol Sci., 4 (1), 15-25 (2014). 
 CP2K: atomistic simulations of condensed matter systems.
 https://doi.org/10.1002/wcms.1159

 VandeVondele, J; Hutter, J. 
 JOURNAL OF CHEMICAL PHYSICS, 127 (11), 114105 (2007). 
 Gaussian basis sets for accurate calculations on molecular systems in
 gas and condensed phases.
 https://doi.org/10.1063/1.2770708

 Kuhne, TD; Krack, M; Mohamed, FR; Parrinello, M. 
 PHYSICAL REVIEW LETTERS, 98 (6), 066401 (2007). 
 Efficient and accurate Car-Parrinello-like approach to
 Born-Oppenheimer molecular dynamics.
 https://doi.org/10.1103/PhysRevLett.98.066401

 Krack, M. 
 THEORETICAL CHEMISTRY ACCOUNTS, 114 (1-3), 145-152 (2005). 
 Pseudopotentials for H to Kr optimized for gradient-corrected
 exchange-correlation functionals.
 https://doi.org/10.1007/s00214-005-0655-y

 VandeVondele, J; Krack, M; Mohamed, F; Parrinello, M; Chassaing, T;
 Hutter, J. COMPUTER PHYSICS COMMUNICATIONS, 167 (2), 103-128 (2005). 
 QUICKSTEP: Fast and accurate density functional calculations using a
 mixed Gaussian and plane waves approach.
 https://doi.org/10.1016/j.cpc.2004.12.014

 Frigo, M; Johnson, SG. 
 PROCEEDINGS OF THE IEEE, 93 (2), 216-231 (2005). 
 The design and implementation of FFTW3.
 https://doi.org/10.1109/JPROC.2004.840301

 Kolafa, J. 
 JOURNAL OF COMPUTATIONAL CHEMISTRY, 25 (3), 335-342 (2004). 
 Time-reversible always stable predictor-corrector method for
 molecular dynamics of polarizable molecules.
 https://doi.org/10.1002/jcc.10385

 VandeVondele, J; Hutter, J. 
 JOURNAL OF CHEMICAL PHYSICS, 118 (10), 4365-4369 (2003). 
 An efficient orbital transformation method for electronic structure
 calculations.
 https://doi.org/10.1063/1.1543154

 Martyna, GJ; Tuckerman, ME. 
 JOURNAL OF CHEMICAL PHYSICS, 110 (6), 2810-2821 (1999). 
 A reciprocal space based method for treating long range interactions in
 ab initio and force-field-based calculations in clusters.
 https://doi.org/10.1063/1.477923

 Hartwigsen, C; Goedecker, S; Hutter, J. 
 PHYSICAL REVIEW B, 58 (7), 3641-3662 (1998). 
 Relativistic separable dual-space Gaussian pseudopotentials from H to Rn.
 https://doi.org/10.1103/PhysRevB.58.3641

 Lippert, G; Hutter, J; Parrinello, M. 
 MOLECULAR PHYSICS, 92 (3), 477-487 (1997). 
 A hybrid Gaussian and plane wave density functional scheme.
 https://doi.org/10.1080/002689797170220

 Perdew, JP; Burke, K; Ernzerhof, M. 
 PHYSICAL REVIEW LETTERS, 77 (18), 3865-3868 (1996). 
 Generalized gradient approximation made simple.
 https://doi.org/10.1103/PhysRevLett.77.3865

 Goedecker, S; Teter, M; Hutter, J. 
 PHYSICAL REVIEW B, 54 (3), 1703-1710 (1996). 
 Separable dual-space Gaussian pseudopotentials.
 https://doi.org/10.1103/PhysRevB.54.1703


 -------------------------------------------------------------------------------
 -                                                                             -
 -                                T I M I N G                                  -
 -                                                                             -
 -------------------------------------------------------------------------------
 SUBROUTINE                       CALLS  ASD         SELF TIME        TOTAL TIME
                                MAXIMUM       AVERAGE  MAXIMUM  AVERAGE  MAXIMUM
 CP2K                                 1  1.0    0.028    0.056 1885.128 1885.133
 cp_geo_opt                           1  2.0    0.000    0.000 1883.730 1883.734
 geoopt_bfgs                          1  3.0    0.004    0.016 1883.730 1883.734
 cp_eval_at                           9  4.0    0.002    0.014 1882.909 1882.963
 qs_energies                          9  5.9    0.009    0.033 1862.867 1863.020
 scf_env_do_scf                       9  6.9    0.001    0.011 1791.022 1791.083
 qs_forces                            8  5.0    0.007    0.027 1754.742 1754.796
 scf_env_do_scf_inner_loop          106  7.9    0.005    0.019 1664.266 1664.350
 qs_scf_new_mos                     106  8.9    0.001    0.014 1367.196 1367.971
 qs_scf_loop_do_ot                  106  9.9    0.001    0.001 1367.195 1367.970
 dbcsr_multiply_generic            2610 14.0    0.280    0.497 1311.704 1318.524
 ot_scf_mini                        106 10.9    0.001    0.012 1307.142 1308.308
 ot_mini                            106 11.9    0.003    0.020  930.844  931.957
 qs_ot_get_derivative               106 12.9    0.001    0.001  777.320  778.154
 multiply_cannon                   2610 15.0    7.448    8.307  528.931  558.347
 mp_sum_l                         12875 14.7  481.918  497.764  481.918  497.764
 multiply_cannon_loop              2610 16.0    0.705    0.914  439.651  467.848
 multiply_cannon_multrec          20880 17.0  354.113  410.878  354.123  410.886
 qs_ot_get_derivative_taylor         65 13.9    0.002    0.002  353.867  354.579
 qs_ot_get_p                        116 11.8    0.000    0.001  237.250  237.963
 qs_ot_get_derivative_diag           41 14.0    0.001    0.043  223.470  224.197
 rebuild_ks_matrix                  114  9.7    0.000    0.000  218.320  219.651
 qs_ks_build_kohn_sham_matrix       114 10.7    0.030    0.086  218.320  219.650
 qs_ks_update_qs_env                116  8.9    0.002    0.021  208.128  209.331
 make_m2s                          5220 15.0    0.050    0.072  195.079  205.874
 make_images                       5220 16.0   15.087   16.508  193.492  202.566
 mp_waitall_1                    245781 17.9  112.951  191.602  112.951  191.602
 pw_transfer                       2410 13.9    0.128    0.164  182.383  183.160
 fft_wrap_pw1pw2                   2182 15.0    0.011    0.022  181.884  182.591
 make_images_sizes                 5220 17.0    0.006    0.026  177.278  180.945
 mp_alltoall_i44                   5220 18.0  177.272  180.941  177.272  180.941
 fft3d_ps                          2182 17.0    7.695    8.651  179.088  179.799
 ot_diis_step                       106 12.9    0.012    0.037  142.585  142.841
 init_scf_loop                       10  7.9    0.000    0.011  123.661  123.810
 apply_preconditioner_dbcsr         116 13.9    0.000    0.000  119.000  120.703
 apply_all                          116 14.9    0.001    0.001  118.999  120.703
 multiply_cannon_metrocomm1       20880 17.0    0.046    0.067   53.280  117.898
 mp_alltoall_z22v                  2182 19.0  114.282  117.259  114.282  117.259
 qs_ot_get_orbitals                 106 11.9    0.000    0.000  108.129  108.781
 qs_rho_update_rho_low              115  9.0    0.002    0.025  102.973  105.743
 calculate_rho_elec                 115 10.0    0.268    0.354  102.971  105.742
 fft_wrap_pw1pw2_600               1265 16.5    1.175    1.581   99.781  100.631
 mp_sum_b                          4612 15.3   94.909   97.383   94.909   97.383
 density_rs2pw                      115 11.0    0.006    0.006   92.729   95.323
 mp_sum_d                          2674 12.2   85.748   92.048   85.748   92.048
 sum_up_and_integrate               114 11.7    0.001    0.011   85.690   86.692
 prepare_preconditioner              10  8.9    0.000    0.000   86.421   86.655
 integrate_v_rspace                 114 12.7    0.023    0.082   85.604   86.620
 potential_pw2rs                    114 13.7    0.009    0.020   85.382   85.725
 mp_allgather_i34                  2610 16.0   81.018   84.943   81.018   84.943
 qs_ot_p2m_diag                      44 13.0    0.004    0.025   80.703   81.575
 dbcsr_complete_redistribute        398 13.4    0.018    0.048   78.645   80.261
 copy_dbcsr_to_fm                   205 12.3    0.004    0.024   78.044   78.996
 qs_vxc_create                      114 11.7    0.011    0.023   71.691   72.039
 xc_vxc_pw_create                   114 12.7    0.285    0.388   71.680   72.025
 multiply_cannon_metrocomm3       20880 17.0    0.045    0.072   31.386   70.690
 calculate_dm_sparse                115 10.8    0.000    0.000   66.296   66.978
 x_to_yz                            799 18.3    2.637    2.951   58.634   59.856
 make_preconditioner                 10  9.9    0.000    0.005   57.844   58.099
 qs_ot_p2m_taylor                    72 12.6    0.001    0.001   55.932   56.900
 xc_pw_derive                       684 14.7    0.004    0.004   55.589   56.671
 cp_dbcsr_syevd                      64 13.2    0.005    0.016   53.660   54.429
 dbcsr_dot_sd                      1185 13.4    0.003    0.013   51.477   53.809
 cp_dbcsr_sm_fm_multiply             54 10.9    0.001    0.001   52.906   53.649
 init_scf_run                         9  6.9    0.001    0.015   52.471   52.565
 scf_env_initial_rho_setup            9  7.9    0.000    0.022   52.470   52.564
 mp_alltoall_z11v                   687 18.3   50.661   51.977   50.661   51.977
 yz_to_x                            696 18.2    0.331    0.389   48.218   49.843
 subspace_eigenvalues_ks_dbcsr       20 10.4    0.000    0.000   46.679   46.887
 wfi_extrapolate                      9  8.9    0.001    0.013   44.252   44.309
 mp_alltoall_d11v                  2262 15.2   41.208   43.287   41.208   43.287
 mp_alltoall_i22                    754 14.9   38.852   41.872   38.852   41.872
 transfer_rs2pw                     593 11.9    0.004    0.005   39.297   41.512
 transfer_rs2pw_600                 133 12.8    4.857    5.387   37.470   39.625
 transfer_pw2rs                     587 14.6    0.003    0.004   37.911   38.355
 xc_pw_divergence                   114 13.7    0.003    0.023   37.302   38.230
 -------------------------------------------------------------------------------

 The number of warnings for this run is : 0
 
 -------------------------------------------------------------------------------
  **** **** ******  **  PROGRAM ENDED AT                 2023-12-07 11:36:35.707
 ***** ** ***  *** **   PROGRAM RAN ON                               nesh-clk427
 **    ****   ******    PROGRAM RAN BY                                  suphc355
 ***** **    ** ** **   PROGRAM PROCESS ID                               2547688
  **** **  *******  **  PROGRAM STOPPED IN /gxfs_work/cau/suphc355/homologes/HX/
                                           opt/I
