       2
 i =        6, E =      -199.4230081692
  F         3.2935082407        3.9999999965        3.9999999964
  F         4.7064917593        4.0000000035        4.0000000036
