 DBCSR| CPU Multiplication driver                                           XSMM (U)
 DBCSR| Multrec recursion limit                                              512 (U)
 DBCSR| Multiplication stack size                                           1000 (D)
 DBCSR| Maximum elements for images                                    UNLIMITED (U)
 DBCSR| Multiplicative factor virtual images                                   1 (U)
 DBCSR| Use multiplication densification                                       T (D)
 DBCSR| Multiplication size stacks                                             3 (U)
 DBCSR| Use memory pool for CPU allocation                                     F (U)
 DBCSR| Number of 3D layers                                               SINGLE (U)
 DBCSR| Use MPI memory allocation                                              F (U)
 DBCSR| Use RMA algorithm                                                      F (U)
 DBCSR| Use Communication thread                                               T (U)
 DBCSR| Communication thread load                                             83 (D)
 DBCSR| MPI: My process id                                                     0
 DBCSR| MPI: Number of processes                                             128
 DBCSR| OMP: Current number of threads                                         2
 DBCSR| OMP: Max number of threads                                             2
 DBCSR| Split modifier for TAS multiplication algorithm                  1.0E+00 (U)


  **** **** ******  **  PROGRAM STARTED AT               2024-01-12 14:51:01.872
 ***** ** ***  *** **   PROGRAM STARTED ON                           nesh-srp244
 **    ****   ******    PROGRAM STARTED BY                              suphc355
 ***** **    ** ** **   PROGRAM PROCESS ID                               2666579
  **** **  *******  **  PROGRAM STARTED IN /gxfs_work/cau/suphc355/homologes/X2/
                                           PP/F

 CP2K| version string:                 CP2K version 2024.1 (Development Version)
 CP2K| source code revision number:                                  git:15182a3
 CP2K| cp2kflags: omp libint fftw3 libxc libgrpp parallel mpi_f08 scalapack cosm
 CP2K|            a xsmm spglib mkl
 CP2K| is freely available from                            https://www.cp2k.org/
 CP2K| Program compiled at                           Di 9. Jan 09:05:01 CET 2024
 CP2K| Program compiled on                                           nesh-login2
 CP2K| Program compiled for                                                local
 CP2K| Data directory path            /gxfs_home/cau/suphc355/software/cp2k/data
 CP2K| Input file name                                               PP_quad.inp
 
 GLOBAL| Force Environment number                                              1
 GLOBAL| Basis set file name                                 ../../../basis_quad
 GLOBAL| Potential file name                                  GTH_SOC_POTENTIALS
 GLOBAL| MM Potential file name                                     MM_POTENTIAL
 GLOBAL| Coordinate file name                                            opt.xyz
 GLOBAL| Method name                                                        CP2K
 GLOBAL| Project name                                                 F2_PP_quad
 GLOBAL| Run type                                                         ENERGY
 GLOBAL| FFT library                                                       FFTW3
 GLOBAL| Diagonalization library                                       ScaLAPACK
 GLOBAL| DGEMM library                                                      BLAS
 GLOBAL| Orthonormality check for eigenvectors                          DISABLED
 GLOBAL| Matrix multiplication library                                     COSMA
 GLOBAL| All-to-all communication in single precision                          F
 GLOBAL| FFTs using library dependent lengths                                  F
 GLOBAL| Grid backend                                                       AUTO
 GLOBAL| Global print level                                               MEDIUM
 GLOBAL| MPI I/O enabled                                                       T
 GLOBAL| Total number of message passing processes                           128
 GLOBAL| Number of threads for this process                                    2
 GLOBAL| This output is from process                                           0
 GLOBAL| Stack size for threads created by OpenMP (OMP_STACKSIZE)        default
 GLOBAL| CPU model name                              Intel(R) Xeon(R) Gold 6426Y
 GLOBAL| CPUID                                                              1003

 MEMORY| system memory details [Kb]
 MEMORY|                        rank 0           min           max       average
 MEMORY| MemTotal            263786136     263786136     263787636     263786511
 MEMORY| MemFree             244386716     243900028     244502460     244266116
 MEMORY| Buffers                556320        552340        953744        753882
 MEMORY| Cached                 476676        455588        738032        594908
 MEMORY| Slab                   464724        464724        520676        488620
 MEMORY| SReclaimable            82396         80088        136036        108604
 MEMORY| MemLikelyFree       245502108     245502108     246073976     245723511


 *** Fundamental physical constants (SI units) ***

 *** Literature: B. J. Mohr and B. N. Taylor,
 ***             CODATA recommended values of the fundamental physical
 ***             constants: 2006, Web Version 5.1
 ***             http://physics.nist.gov/constants

 Speed of light in vacuum [m/s]                             2.99792458000000E+08
 Magnetic constant or permeability of vacuum [N/A**2]       1.25663706143592E-06
 Electric constant or permittivity of vacuum [F/m]          8.85418781762039E-12
 Planck constant (h) [J*s]                                  6.62606896000000E-34
 Planck constant (h-bar) [J*s]                              1.05457162825177E-34
 Elementary charge [C]                                      1.60217648700000E-19
 Electron mass [kg]                                         9.10938215000000E-31
 Electron g factor [ ]                                     -2.00231930436220E+00
 Proton mass [kg]                                           1.67262163700000E-27
 Fine-structure constant                                    7.29735253760000E-03
 Rydberg constant [1/m]                                     1.09737315685270E+07
 Avogadro constant [1/mol]                                  6.02214179000000E+23
 Boltzmann constant [J/K]                                   1.38065040000000E-23
 Atomic mass unit [kg]                                      1.66053878200000E-27
 Bohr radius [m]                                            5.29177208590000E-11

 *** Conversion factors ***

 [u] -> [a.u.]                                              1.82288848426455E+03
 [Angstrom] -> [Bohr] = [a.u.]                              1.88972613288564E+00
 [a.u.] = [Bohr] -> [Angstrom]                              5.29177208590000E-01
 [a.u.] -> [s]                                              2.41888432650478E-17
 [a.u.] -> [fs]                                             2.41888432650478E-02
 [a.u.] -> [J]                                              4.35974393937059E-18
 [a.u.] -> [N]                                              8.23872205491840E-08
 [a.u.] -> [K]                                              3.15774647902944E+05
 [a.u.] -> [kJ/mol]                                         2.62549961709828E+03
 [a.u.] -> [kcal/mol]                                       6.27509468713739E+02
 [a.u.] -> [Pa]                                             2.94210107994716E+13
 [a.u.] -> [bar]                                            2.94210107994716E+08
 [a.u.] -> [atm]                                            2.90362800883016E+08
 [a.u.] -> [eV]                                             2.72113838565563E+01
 [a.u.] -> [Hz]                                             6.57968392072181E+15
 [a.u.] -> [1/cm] (wave numbers)                            2.19474631370540E+05
 [a.u./Bohr**2] -> [1/cm]                                   5.14048714338585E+03
 

 CELL_TOP| Volume [angstrom^3]:                                       512.000000
 CELL_TOP| Vector a [angstrom     8.000     0.000     0.000   |a| =     8.000000
 CELL_TOP| Vector b [angstrom     0.000     8.000     0.000   |b| =     8.000000
 CELL_TOP| Vector c [angstrom     0.000     0.000     8.000   |c| =     8.000000
 CELL_TOP| Angle (b,c), alpha [degree]:                                90.000000
 CELL_TOP| Angle (a,c), beta  [degree]:                                90.000000
 CELL_TOP| Angle (a,b), gamma [degree]:                                90.000000
 CELL_TOP| Numerically orthorhombic:                                         YES
 CELL_TOP| Periodicity                                                      NONE
 
 GENERATE|  Preliminary Number of Bonds generated:                             0
 GENERATE|  Achieved consistency in connectivity generation.

 CELL| Volume [angstrom^3]:                                           512.000000
 CELL| Vector a [angstrom]:       8.000     0.000     0.000   |a| =     8.000000
 CELL| Vector b [angstrom]:       0.000     8.000     0.000   |b| =     8.000000
 CELL| Vector c [angstrom]:       0.000     0.000     8.000   |c| =     8.000000
 CELL| Angle (b,c), alpha [degree]:                                    90.000000
 CELL| Angle (a,c), beta  [degree]:                                    90.000000
 CELL| Angle (a,b), gamma [degree]:                                    90.000000
 CELL| Numerically orthorhombic:                                             YES
 CELL| Periodicity                                                          NONE

 CELL_REF| Volume [angstrom^3]:                                       512.000000
 CELL_REF| Vector a [angstrom     8.000     0.000     0.000   |a| =     8.000000
 CELL_REF| Vector b [angstrom     0.000     8.000     0.000   |b| =     8.000000
 CELL_REF| Vector c [angstrom     0.000     0.000     8.000   |c| =     8.000000
 CELL_REF| Angle (b,c), alpha [degree]:                                90.000000
 CELL_REF| Angle (a,c), beta  [degree]:                                90.000000
 CELL_REF| Angle (a,b), gamma [degree]:                                90.000000
 CELL_REF| Numerically orthorhombic:                                         YES
 CELL_REF| Periodicity                                                      NONE

 *******************************************************************************
 *   ___                                                                       *
 *  /   \                                                                      *
 * [ABORT]                                                                     *
 *  \___/     The requested basis set <AUG-QZV2P-GTH> for element <F> was not  *
 *    |             found in the basis set files <../../../basis_quad>         *
 *  O/|                                                                        *
 * /| |                                                                        *
 * / \                                          aobasis/basis_set_types.F:1438 *
 *******************************************************************************


 ===== Routine Calling Stack ===== 

            3 read_qs_kind
            2 create_qs_kind_set
            1 CP2K
 DBCSR| CPU Multiplication driver                                           XSMM (U)
 DBCSR| Multrec recursion limit                                              512 (U)
 DBCSR| Multiplication stack size                                           1000 (D)
 DBCSR| Maximum elements for images                                    UNLIMITED (U)
 DBCSR| Multiplicative factor virtual images                                   1 (U)
 DBCSR| Use multiplication densification                                       T (D)
 DBCSR| Multiplication size stacks                                             3 (U)
 DBCSR| Use memory pool for CPU allocation                                     F (U)
 DBCSR| Number of 3D layers                                               SINGLE (U)
 DBCSR| Use MPI memory allocation                                              F (U)
 DBCSR| Use RMA algorithm                                                      F (U)
 DBCSR| Use Communication thread                                               T (U)
 DBCSR| Communication thread load                                             83 (D)
 DBCSR| MPI: My process id                                                     0
 DBCSR| MPI: Number of processes                                             128
 DBCSR| OMP: Current number of threads                                         2
 DBCSR| OMP: Max number of threads                                             2
 DBCSR| Split modifier for TAS multiplication algorithm                  1.0E+00 (U)


  **** **** ******  **  PROGRAM STARTED AT               2024-01-15 14:27:43.452
 ***** ** ***  *** **   PROGRAM STARTED ON                           nesh-clk603
 **    ****   ******    PROGRAM STARTED BY                              suphc355
 ***** **    ** ** **   PROGRAM PROCESS ID                               3646426
  **** **  *******  **  PROGRAM STARTED IN /gxfs_work/cau/suphc355/homologes/X2/
                                           PP/F

 CP2K| version string:                 CP2K version 2024.1 (Development Version)
 CP2K| source code revision number:                                  git:15182a3
 CP2K| cp2kflags: omp libint fftw3 libxc libgrpp parallel mpi_f08 scalapack cosm
 CP2K|            a xsmm spglib mkl
 CP2K| is freely available from                            https://www.cp2k.org/
 CP2K| Program compiled at                           Di 9. Jan 09:05:01 CET 2024
 CP2K| Program compiled on                                           nesh-login2
 CP2K| Program compiled for                                                local
 CP2K| Data directory path            /gxfs_home/cau/suphc355/software/cp2k/data
 CP2K| Input file name                                               PP_quad.inp
 
 GLOBAL| Force Environment number                                              1
 GLOBAL| Basis set file name                                 ../../../basis_quad
 GLOBAL| Potential file name                                  GTH_SOC_POTENTIALS
 GLOBAL| MM Potential file name                                     MM_POTENTIAL
 GLOBAL| Coordinate file name                                            opt.xyz
 GLOBAL| Method name                                                        CP2K
 GLOBAL| Project name                                                 F2_PP_quad
 GLOBAL| Run type                                                         ENERGY
 GLOBAL| FFT library                                                       FFTW3
 GLOBAL| Diagonalization library                                       ScaLAPACK
 GLOBAL| DGEMM library                                                      BLAS
 GLOBAL| Orthonormality check for eigenvectors                          DISABLED
 GLOBAL| Matrix multiplication library                                     COSMA
 GLOBAL| All-to-all communication in single precision                          F
 GLOBAL| FFTs using library dependent lengths                                  F
 GLOBAL| Grid backend                                                       AUTO
 GLOBAL| Global print level                                               MEDIUM
 GLOBAL| MPI I/O enabled                                                       T
 GLOBAL| Total number of message passing processes                           128
 GLOBAL| Number of threads for this process                                    2
 GLOBAL| This output is from process                                           0
 GLOBAL| Stack size for threads created by OpenMP (OMP_STACKSIZE)        default
 GLOBAL| CPU model name                Intel(R) Xeon(R) Gold 6226R CPU @ 2.90GHz
 GLOBAL| CPUID                                                              1003

 MEMORY| system memory details [Kb]
 MEMORY|                        rank 0           min           max       average
 MEMORY| MemTotal            196683224     196683224     196683224     196683224
 MEMORY| MemFree             176718468     176522820     176718972     176638946
 MEMORY| Buffers                485864        463752        505304        488104
 MEMORY| Cached                1061484       1061156       1251636       1124205
 MEMORY| Slab                   538756        500852        562144        529370
 MEMORY| SReclaimable           121296        112704        133360        120704
 MEMORY| MemLikelyFree       178387112     178350912     178387288     178371959


 *** Fundamental physical constants (SI units) ***

 *** Literature: B. J. Mohr and B. N. Taylor,
 ***             CODATA recommended values of the fundamental physical
 ***             constants: 2006, Web Version 5.1
 ***             http://physics.nist.gov/constants

 Speed of light in vacuum [m/s]                             2.99792458000000E+08
 Magnetic constant or permeability of vacuum [N/A**2]       1.25663706143592E-06
 Electric constant or permittivity of vacuum [F/m]          8.85418781762039E-12
 Planck constant (h) [J*s]                                  6.62606896000000E-34
 Planck constant (h-bar) [J*s]                              1.05457162825177E-34
 Elementary charge [C]                                      1.60217648700000E-19
 Electron mass [kg]                                         9.10938215000000E-31
 Electron g factor [ ]                                     -2.00231930436220E+00
 Proton mass [kg]                                           1.67262163700000E-27
 Fine-structure constant                                    7.29735253760000E-03
 Rydberg constant [1/m]                                     1.09737315685270E+07
 Avogadro constant [1/mol]                                  6.02214179000000E+23
 Boltzmann constant [J/K]                                   1.38065040000000E-23
 Atomic mass unit [kg]                                      1.66053878200000E-27
 Bohr radius [m]                                            5.29177208590000E-11

 *** Conversion factors ***

 [u] -> [a.u.]                                              1.82288848426455E+03
 [Angstrom] -> [Bohr] = [a.u.]                              1.88972613288564E+00
 [a.u.] = [Bohr] -> [Angstrom]                              5.29177208590000E-01
 [a.u.] -> [s]                                              2.41888432650478E-17
 [a.u.] -> [fs]                                             2.41888432650478E-02
 [a.u.] -> [J]                                              4.35974393937059E-18
 [a.u.] -> [N]                                              8.23872205491840E-08
 [a.u.] -> [K]                                              3.15774647902944E+05
 [a.u.] -> [kJ/mol]                                         2.62549961709828E+03
 [a.u.] -> [kcal/mol]                                       6.27509468713739E+02
 [a.u.] -> [Pa]                                             2.94210107994716E+13
 [a.u.] -> [bar]                                            2.94210107994716E+08
 [a.u.] -> [atm]                                            2.90362800883016E+08
 [a.u.] -> [eV]                                             2.72113838565563E+01
 [a.u.] -> [Hz]                                             6.57968392072181E+15
 [a.u.] -> [1/cm] (wave numbers)                            2.19474631370540E+05
 [a.u./Bohr**2] -> [1/cm]                                   5.14048714338585E+03
 

 CELL_TOP| Volume [angstrom^3]:                                       512.000000
 CELL_TOP| Vector a [angstrom     8.000     0.000     0.000   |a| =     8.000000
 CELL_TOP| Vector b [angstrom     0.000     8.000     0.000   |b| =     8.000000
 CELL_TOP| Vector c [angstrom     0.000     0.000     8.000   |c| =     8.000000
 CELL_TOP| Angle (b,c), alpha [degree]:                                90.000000
 CELL_TOP| Angle (a,c), beta  [degree]:                                90.000000
 CELL_TOP| Angle (a,b), gamma [degree]:                                90.000000
 CELL_TOP| Numerically orthorhombic:                                         YES
 CELL_TOP| Periodicity                                                      NONE
 
 GENERATE|  Preliminary Number of Bonds generated:                             0
 GENERATE|  Achieved consistency in connectivity generation.

 CELL| Volume [angstrom^3]:                                           512.000000
 CELL| Vector a [angstrom]:       8.000     0.000     0.000   |a| =     8.000000
 CELL| Vector b [angstrom]:       0.000     8.000     0.000   |b| =     8.000000
 CELL| Vector c [angstrom]:       0.000     0.000     8.000   |c| =     8.000000
 CELL| Angle (b,c), alpha [degree]:                                    90.000000
 CELL| Angle (a,c), beta  [degree]:                                    90.000000
 CELL| Angle (a,b), gamma [degree]:                                    90.000000
 CELL| Numerically orthorhombic:                                             YES
 CELL| Periodicity                                                          NONE

 CELL_REF| Volume [angstrom^3]:                                       512.000000
 CELL_REF| Vector a [angstrom     8.000     0.000     0.000   |a| =     8.000000
 CELL_REF| Vector b [angstrom     0.000     8.000     0.000   |b| =     8.000000
 CELL_REF| Vector c [angstrom     0.000     0.000     8.000   |c| =     8.000000
 CELL_REF| Angle (b,c), alpha [degree]:                                90.000000
 CELL_REF| Angle (a,c), beta  [degree]:                                90.000000
 CELL_REF| Angle (a,b), gamma [degree]:                                90.000000
 CELL_REF| Numerically orthorhombic:                                         YES
 CELL_REF| Periodicity                                                      NONE

 *******************************************************************************
 *******************************************************************************
 **                                                                           **
 **     #####                         ##              ##                      **
 **    ##   ##            ##          ##              ##                      **
 **   ##     ##                       ##            ######                    **
 **   ##     ##  ##   ##  ##   #####  ##  ##   ####   ##    #####    #####    **
 **   ##     ##  ##   ##  ##  ##      ## ##   ##      ##   ##   ##  ##   ##   **
 **   ##  ## ##  ##   ##  ##  ##      ####     ###    ##   ######   ######    **
 **    ##  ###   ##   ##  ##  ##      ## ##      ##   ##   ##       ##        **
 **     #######   #####   ##   #####  ##  ##  ####    ##    #####   ##        **
 **           ##                                                    ##        **
 **                                                                           **
 **                                                ... make the atoms dance   **
 **                                                                           **
 **            Copyright (C) by CP2K developers group (2000-2024)             **
 **                      J. Chem. Phys. 152, 194103 (2020)                    **
 **                                                                           **
 *******************************************************************************

 DFT| Spin restricted Kohn-Sham (RKS) calculation                            RKS
 DFT| Multiplicity                                                             1
 DFT| Number of spin states                                                    1
 DFT| Charge                                                                   0
 DFT| Self-interaction correction (SIC)                                       NO
 DFT| Cutoffs: density                                              1.000000E-10
 DFT|          gradient                                             1.000000E-10
 DFT|          tau                                                  1.000000E-10
 DFT|          cutoff_smoothing_range                               0.000000E+00
 DFT| XC density smoothing                                                  NONE
 DFT| XC derivatives                                                          PW

 FUNCTIONAL| PBE:
 FUNCTIONAL| J.P.Perdew, K.Burke, M.Ernzerhof, Phys. Rev. Letter, vol. 77, n 18,
 FUNCTIONAL|  pp. 3865-3868, (1996) {spin unpolarized}                          


 QS| Method:                                                                 GPW
 QS| Density plane wave grid type                        NON-SPHERICAL FULLSPACE
 QS| Number of grid levels:                                                    5
 QS| Density cutoff [a.u.]:                                                600.0
 QS| Multi grid cutoff [a.u.]: 1) grid level                               600.0
 QS|                           2) grid level                               200.0
 QS|                           3) grid level                                66.7
 QS|                           4) grid level                                22.2
 QS|                           5) grid level                                 7.4
 QS| Grid level progression factor:                                          3.0
 QS| Relative density cutoff [a.u.]:                                        40.0
 QS| Interaction thresholds: eps_pgf_orb:                                1.0E-30
 QS|                         eps_filter_matrix:                          0.0E+00
 QS|                         eps_core_charge:                            1.0E-17
 QS|                         eps_rho_gspace:                             1.0E-15
 QS|                         eps_rho_rspace:                             1.0E-15
 QS|                         eps_gvg_rspace:                             3.2E-08
 QS|                         eps_ppl:                                    1.0E-02
 QS|                         eps_ppnl:                                   3.2E-10


 ATOMIC KIND INFORMATION

  1. Atomic kind: F                                     Number of atoms:       2

     Orbital Basis Set                                             aug-QZV2P-GTH

       Number of orbital shell sets:                                           4
       Number of orbital shells:                                              12
       Number of primitive Cartesian functions:                               10
       Number of Cartesian basis functions:                                   32
       Number of spherical basis functions:                                   30
       Norm type:                                                              2

       Normalised Cartesian orbitals:

                        Set   Shell   Orbital            Exponent    Coefficient

                          1       1    2s               15.162300      -0.370242
                                                         6.341843      -0.375216
                                                         2.490023       0.224227
                                                         0.991924       0.369072
                                                         0.379315       0.147670
                                                         0.134813       0.009490

                          1       2    3s               15.162300       0.000000
                                                         6.341843       0.000000
                                                         2.490023       0.000000
                                                         0.991924       0.708384
                                                         0.379315       0.000000
                                                         0.134813       0.000000

                          1       3    4s               15.162300       0.000000
                                                         6.341843       0.000000
                                                         2.490023       0.000000
                                                         0.991924       0.000000
                                                         0.379315       0.344477
                                                         0.134813       0.000000

                          1       4    5s               15.162300       0.000000
                                                         6.341843       0.000000
                                                         2.490023       0.000000
                                                         0.991924       0.000000
                                                         0.379315       0.000000
                                                         0.134813       0.158566

                          1       5    3px              15.162300       1.738526
                                                         6.341843       1.971629
                                                         2.490023       1.243807
                                                         0.991924       0.516723
                                                         0.379315       0.137247
                                                         0.134813       0.015230
                          1       5    3py              15.162300       1.738526
                                                         6.341843       1.971629
                                                         2.490023       1.243807
                                                         0.991924       0.516723
                                                         0.379315       0.137247
                                                         0.134813       0.015230
                          1       5    3pz              15.162300       1.738526
                                                         6.341843       1.971629
                                                         2.490023       1.243807
                                                         0.991924       0.516723
                                                         0.379315       0.137247
                                                         0.134813       0.015230

                          1       6    4px              15.162300       0.000000
                                                         6.341843       0.000000
                                                         2.490023       0.000000
                                                         0.991924       1.411036
                                                         0.379315       0.000000
                                                         0.134813       0.000000
                          1       6    4py              15.162300       0.000000
                                                         6.341843       0.000000
                                                         2.490023       0.000000
                                                         0.991924       1.411036
                                                         0.379315       0.000000
                                                         0.134813       0.000000
                          1       6    4pz              15.162300       0.000000
                                                         6.341843       0.000000
                                                         2.490023       0.000000
                                                         0.991924       1.411036
                                                         0.379315       0.000000
                                                         0.134813       0.000000

                          1       7    5px              15.162300       0.000000
                                                         6.341843       0.000000
                                                         2.490023       0.000000
                                                         0.991924       0.000000
                                                         0.379315       0.424317
                                                         0.134813       0.000000
                          1       7    5py              15.162300       0.000000
                                                         6.341843       0.000000
                                                         2.490023       0.000000
                                                         0.991924       0.000000
                                                         0.379315       0.424317
                                                         0.134813       0.000000
                          1       7    5pz              15.162300       0.000000
                                                         6.341843       0.000000
                                                         2.490023       0.000000
                                                         0.991924       0.000000
                                                         0.379315       0.424317
                                                         0.134813       0.000000

                          1       8    6px              15.162300       0.000000
                                                         6.341843       0.000000
                                                         2.490023       0.000000
                                                         0.991924       0.000000
                                                         0.379315       0.000000
                                                         0.134813       0.116441
                          1       8    6py              15.162300       0.000000
                                                         6.341843       0.000000
                                                         2.490023       0.000000
                                                         0.991924       0.000000
                                                         0.379315       0.000000
                                                         0.134813       0.116441
                          1       8    6pz              15.162300       0.000000
                                                         6.341843       0.000000
                                                         2.490023       0.000000
                                                         0.991924       0.000000
                                                         0.379315       0.000000
                                                         0.134813       0.116441

                          2       1    3dx2              3.107000      11.967589
                                                         0.855000       0.000000
                          2       1    3dxy              3.107000      20.728471
                                                         0.855000       0.000000
                          2       1    3dxz              3.107000      20.728471
                                                         0.855000       0.000000
                          2       1    3dy2              3.107000      11.967589
                                                         0.855000       0.000000
                          2       1    3dyz              3.107000      20.728471
                                                         0.855000       0.000000
                          2       1    3dz2              3.107000      11.967589
                                                         0.855000       0.000000

                          2       2    4dx2              3.107000       0.000000
                                                         0.855000       1.251267
                          2       2    4dxy              3.107000       0.000000
                                                         0.855000       2.167259
                          2       2    4dxz              3.107000       0.000000
                                                         0.855000       2.167259
                          2       2    4dy2              3.107000       0.000000
                                                         0.855000       1.251267
                          2       2    4dyz              3.107000       0.000000
                                                         0.855000       2.167259
                          2       2    4dz2              3.107000       0.000000
                                                         0.855000       1.251267

                          3       1    2s                0.085940       0.113124

                          4       1    2px               0.065680       0.047395
                          4       1    2py               0.065680       0.047395
                          4       1    2pz               0.065680       0.047395

       Atomic covalent radius [Angstrom]:                                  0.720

       Atomic van der Waals radius [Angstrom]:                             1.470

     GTH Potential information for                                       GTH-PBE

       Description:                       Goedecker-Teter-Hutter pseudopotential
                                           Goedecker et al., PRB 54, 1703 (1996)
                                          Hartwigsen et al., PRB 58, 3641 (1998)
                                                      Krack, TCA 114, 145 (2005)

       Gaussian exponent of the core charge distribution:              10.823746
       Electronic configuration (s p d ...):                               2   5

       Parameters of the local part of the GTH pseudopotential:

                          rloc        C1          C2          C3          C4
                        0.214930  -21.573028    3.199776

       Parameters of the non-local part of the GTH (SOC) pseudopotential:

                   l      r(l)      h(i,j,l)
                                    k(i,j,l)
                   0    0.194684   23.743540
                   1    0.186156    0.000000
                                    0.012614


 MOLECULE KIND INFORMATION


 All atoms are their own molecule, skipping detailed information


 TOTAL NUMBERS AND MAXIMUM NUMBERS

  Total number of            - Atomic kinds:                                   1
                             - Atoms:                                          2
                             - Shell sets:                                     8
                             - Shells:                                        24
                             - Primitive Cartesian functions:                 20
                             - Cartesian basis functions:                     64
                             - Spherical basis functions:                     60

  Maximum angular momentum of- Orbital basis functions:                        2
                             - Local part of the GTH pseudopotential:          2
                             - Non-local part of the GTH pseudopotential:      1


 MODULE QUICKSTEP: ATOMIC COORDINATES IN ANGSTROM

   Atom Kind Element         X             Y             Z       Z(eff)     Mass
      1    1 F     9      3.293508      4.000000      4.000000   7.0000  18.9984
      2    1 F     9      4.706492      4.000000      4.000000   7.0000  18.9984



 SCF PARAMETERS         Density guess:                                    ATOMIC
                        --------------------------------------------------------
                        max_scf:                                              20
                        max_scf_history:                                       0
                        max_diis:                                              4
                        --------------------------------------------------------
                        eps_scf:                                        1.00E-07
                        eps_scf_history:                                0.00E+00
                        eps_diis:                                       1.00E-01
                        eps_eigval:                                     1.00E-05
                        --------------------------------------------------------
                        level_shift [a.u.]:                             0.000000
                        --------------------------------------------------------
                        Outer loop SCF in use 
                        No variables optimised in outer loop
                        eps_scf                                         1.00E-07
                        max_scf                                               50
                        No outer loop optimization
                        step_size                                       5.00E-01

 PW_GRID| Information for grid number                                          1
 PW_GRID| Grid distributed over                                   128 processors
 PW_GRID| Real space group dimensions                                   128    1
 PW_GRID| the grid is blocked:                                                NO
 PW_GRID| Cutoff [a.u.]                                                   1200.0
 PW_GRID| spherical cutoff:                                                   NO
 PW_GRID|   Bounds   1           -120     119                Points:         240
 PW_GRID|   Bounds   2           -120     119                Points:         240
 PW_GRID|   Bounds   3           -120     119                Points:         240
 PW_GRID| Volume element (a.u.^3)  0.2499E-03     Volume (a.u.^3)      3455.1473
 PW_GRID| Grid span                                                    FULLSPACE
 PW_GRID|   Distribution                         Average         Max         Min
 PW_GRID|   G-Vectors                           108000.0      108000      108000
 PW_GRID|   G-Rays                                 450.0         450         450
 PW_GRID|   Real Space Points                   108000.0      115200       57600

 PW_GRID| Information for grid number                                          2
 PW_GRID| Number of the reference grid                                         1
 PW_GRID| Grid distributed over                                   128 processors
 PW_GRID| Real space group dimensions                                   128    1
 PW_GRID| the grid is blocked:                                                NO
 PW_GRID| Cutoff [a.u.]                                                    600.0
 PW_GRID| spherical cutoff:                                                   NO
 PW_GRID|   Bounds   1            -90      89                Points:         180
 PW_GRID|   Bounds   2            -90      89                Points:         180
 PW_GRID|   Bounds   3            -90      89                Points:         180
 PW_GRID| Volume element (a.u.^3)  0.5924E-03     Volume (a.u.^3)      3455.1473
 PW_GRID| Grid span                                                    FULLSPACE
 PW_GRID|   Distribution                         Average         Max         Min
 PW_GRID|   G-Vectors                            45562.5       45720       45360
 PW_GRID|   G-Rays                                 253.1         254         252
 PW_GRID|   Real Space Points                    45562.5       64800       32400

 PW_GRID| Information for grid number                                          3
 PW_GRID| Number of the reference grid                                         2
 PW_GRID| Grid distributed over                                   128 processors
 PW_GRID| Real space group dimensions                                     8   16
 PW_GRID| the grid is blocked:                                                NO
 PW_GRID| Cutoff [a.u.]                                                    200.0
 PW_GRID| spherical cutoff:                                                   NO
 PW_GRID|   Bounds   1            -50      49                Points:         100
 PW_GRID|   Bounds   2            -50      49                Points:         100
 PW_GRID|   Bounds   3            -50      49                Points:         100
 PW_GRID| Volume element (a.u.^3)  0.3455E-02     Volume (a.u.^3)      3455.1473
 PW_GRID| Grid span                                                    FULLSPACE
 PW_GRID|   Distribution                         Average         Max         Min
 PW_GRID|   G-Vectors                             7812.5        7900        7700
 PW_GRID|   G-Rays                                  78.1          79          77
 PW_GRID|   Real Space Points                     7812.5        9100        7200

 PW_GRID| Information for grid number                                          4
 PW_GRID| Number of the reference grid                                         2
 PW_GRID| Grid distributed over                                   128 processors
 PW_GRID| Real space group dimensions                                     8   16
 PW_GRID| the grid is blocked:                                                NO
 PW_GRID| Cutoff [a.u.]                                                     66.7
 PW_GRID| spherical cutoff:                                                   NO
 PW_GRID|   Bounds   1            -30      29                Points:          60
 PW_GRID|   Bounds   2            -30      29                Points:          60
 PW_GRID|   Bounds   3            -30      29                Points:          60
 PW_GRID| Volume element (a.u.^3)  0.1600E-01     Volume (a.u.^3)      3455.1473
 PW_GRID| Grid span                                                    FULLSPACE
 PW_GRID|   Distribution                         Average         Max         Min
 PW_GRID|   G-Vectors                             1687.5        1800        1620
 PW_GRID|   G-Rays                                  28.1          30          27
 PW_GRID|   Real Space Points                     1687.5        1920        1260

 PW_GRID| Information for grid number                                          5
 PW_GRID| Number of the reference grid                                         2
 PW_GRID| Grid distributed over                                   128 processors
 PW_GRID| Real space group dimensions                                     8   16
 PW_GRID| the grid is blocked:                                                NO
 PW_GRID| Cutoff [a.u.]                                                     22.2
 PW_GRID| spherical cutoff:                                                   NO
 PW_GRID|   Bounds   1            -18      17                Points:          36
 PW_GRID|   Bounds   2            -18      17                Points:          36
 PW_GRID|   Bounds   3            -18      17                Points:          36
 PW_GRID| Volume element (a.u.^3)  0.7406E-01     Volume (a.u.^3)      3455.1473
 PW_GRID| Grid span                                                    FULLSPACE
 PW_GRID|   Distribution                         Average         Max         Min
 PW_GRID|   G-Vectors                              364.5         396         324
 PW_GRID|   G-Rays                                  10.1          11           9
 PW_GRID|   Real Space Points                      364.5         540         288

 PW_GRID| Information for grid number                                          6
 PW_GRID| Number of the reference grid                                         2
 PW_GRID| Grid distributed over                                   128 processors
 PW_GRID| Real space group dimensions                                     8   16
 PW_GRID| the grid is blocked:                                                NO
 PW_GRID| Cutoff [a.u.]                                                      7.4
 PW_GRID| spherical cutoff:                                                   NO
 PW_GRID|   Bounds   1            -10       9                Points:          20
 PW_GRID|   Bounds   2            -10       9                Points:          20
 PW_GRID|   Bounds   3            -10       9                Points:          20
 PW_GRID| Volume element (a.u.^3)  0.4319         Volume (a.u.^3)      3455.1473
 PW_GRID| Grid span                                                    FULLSPACE
 PW_GRID|   Distribution                         Average         Max         Min
 PW_GRID|   G-Vectors                               62.5          80          40
 PW_GRID|   G-Rays                                   3.1           4           2
 PW_GRID|   Real Space Points                       62.5         120          40

 POISSON| Solver                                          Martyna-Tuckerman (MT)
 POISSON| MT| Alpha                                                        7.000
 POISSON| MT| Relative cutoff                                                2.0
 POISSON| Periodicity                                                       NONE

 RS_GRID| Information for grid number                                          2
 RS_GRID|   Bounds   1            -90      89                Points:         180
 RS_GRID|   Bounds   2            -90      89                Points:         180
 RS_GRID|   Bounds   3            -90      89                Points:         180
 RS_GRID| Real space distribution over                                  4 groups
 RS_GRID| Real space distribution along direction                              1
 RS_GRID| Border size                                                         33
 RS_GRID| Real space distribution over                                  4 groups
 RS_GRID| Real space distribution along direction                              2
 RS_GRID| Border size                                                         33
 RS_GRID| Real space distribution over                                  8 groups
 RS_GRID| Real space distribution along direction                              3
 RS_GRID| Border size                                                         33
 RS_GRID|   Distribution                         Average         Max         Min
 RS_GRID|   Planes                                 111.0         111         111
 RS_GRID|   Distribution                         Average         Max         Min
 RS_GRID|   Planes                                 111.0         111         111
 RS_GRID|   Distribution                         Average         Max         Min
 RS_GRID|   Planes                                  88.5          89          88

 RS_GRID| Information for grid number                                          3
 RS_GRID|   Bounds   1            -50      49                Points:         100
 RS_GRID|   Bounds   2            -50      49                Points:         100
 RS_GRID|   Bounds   3            -50      49                Points:         100
 RS_GRID| Real space fully replicated
 RS_GRID| Group size                                                           1

 RS_GRID| Information for grid number                                          4
 RS_GRID|   Bounds   1            -30      29                Points:          60
 RS_GRID|   Bounds   2            -30      29                Points:          60
 RS_GRID|   Bounds   3            -30      29                Points:          60
 RS_GRID| Real space fully replicated
 RS_GRID| Group size                                                           1

 RS_GRID| Information for grid number                                          5
 RS_GRID|   Bounds   1            -18      17                Points:          36
 RS_GRID|   Bounds   2            -18      17                Points:          36
 RS_GRID|   Bounds   3            -18      17                Points:          36
 RS_GRID| Real space fully replicated
 RS_GRID| Group size                                                           1

 RS_GRID| Information for grid number                                          6
 RS_GRID|   Bounds   1            -10       9                Points:          20
 RS_GRID|   Bounds   2            -10       9                Points:          20
 RS_GRID|   Bounds   3            -10       9                Points:          20
 RS_GRID| Real space fully replicated
 RS_GRID| Group size                                                           1

 Number of electrons:                                                         14
 Number of occupied orbitals:                                                  7
 Number of molecular orbitals:                                                 7

 Number of orbital functions:                                                 60
 Number of independent orbital functions:                                     60

 Extrapolation method: initial_guess

 Atomic guess: The first density matrix is obtained in terms of atomic orbitals
               and electronic configurations assigned to each atomic kind

 Guess for atomic kind: F

 Electronic structure
    Total number of core electrons                                          2.00
    Total number of valence electrons                                       7.00
    Total number of electrons                                               9.00
    Multiplicity                                                   not specified
    S   [  2.00] 2.00
    P      5.00
 

 *******************************************************************************
                  Iteration          Convergence                     Energy [au]
 *******************************************************************************
                          1        0.942400                     -23.739239267101
                          2         1.13546                     -23.699911201829
                          3        0.872941E-01                 -23.938703174742
                          4        0.370834E-02                 -23.940444682042
                          5        0.195180E-03                 -23.940446582708
                          6        0.175443E-05                 -23.940446591097
                          7        0.787908E-06                 -23.940446591098

 Energy components [Hartree]           Total Energy ::          -23.940446591098
                                        Band Energy ::           -4.157867928823
                                     Kinetic Energy ::           18.794111318941
                                   Potential Energy ::          -42.734557910039
                                      Virial (-V/T) ::            2.273827008089
                                        Core Energy ::          -40.725432392848
                                          XC Energy ::           -4.362532399315
                                     Coulomb Energy ::           21.147518201065
                       Total Pseudopotential Energy ::          -59.553896916564
                       Local Pseudopotential Energy ::          -61.260705354444
                    Nonlocal Pseudopotential Energy ::            1.706808437880
                                        Confinement ::            0.343532047751

 Orbital energies  State     L     Occupation   Energy[a.u.]          Energy[eV]

                       1     0          2.000      -1.085728          -29.544163
 
                       1     1          5.000      -0.397282          -10.810603
 

 Total Electron Density at R=0:                                         0.000098
 Re-scaling the density matrix to get the right number of electrons
                  # Electrons              Trace(P)               Scaling factor
                           14                14.000                        1.000


 SCF WAVEFUNCTION OPTIMIZATION

  ----------------------------------- OT ---------------------------------------
  Minimizer      : DIIS                : direct inversion
                                         in the iterative subspace
                                         using   7 DIIS vectors
                                         safer DIIS on
  Preconditioner : FULL_ALL            : diagonalization, state selective
  Precond_solver : DEFAULT
  stepsize       :    0.15000000                  energy_gap     :    0.08000000
  eps_taylor     :   0.10000E-15                  max_taylor     :             4
  ----------------------------------- OT ---------------------------------------

  Step     Update method      Time    Convergence         Total energy    Change
  ------------------------------------------------------------------------------
     1 OT DIIS     0.15E+00   34.0     0.19759112       -47.4248345727 -4.74E+01
     2 OT DIIS     0.15E+00   24.6     0.11782391       -46.6043273205  8.21E-01
     3 OT DIIS     0.15E+00   24.6     0.24364066       -47.2401558885 -6.36E-01
     4 OT DIIS     0.15E+00   24.1     0.24747623       -47.7246024274 -4.84E-01
     5 OT SD       0.15E+00   24.1     0.13437234       -48.1374265604 -4.13E-01
     6 OT DIIS     0.15E+00   24.5     0.18543555       -46.9100016011  1.23E+00
     7 OT DIIS     0.15E+00   24.7     0.16272246       -48.0687882869 -1.16E+00
     8 OT SD       0.15E+00   24.8     0.15772688       -48.1313226375 -6.25E-02
     9 OT SD       0.15E+00   24.6     0.16778072       -47.1414812811  9.90E-01
    10 OT DIIS     0.15E+00   23.7     0.12216032       -47.2900718869 -1.49E-01
    11 OT DIIS     0.15E+00   24.5     0.07476460       -47.7664646522 -4.76E-01
    12 OT SD       0.15E+00   24.9     0.08361045       -47.8582740957 -9.18E-02
    13 OT DIIS     0.15E+00   23.4     0.14613995       -47.9339710479 -7.57E-02
    14 OT DIIS     0.15E+00   24.0     0.10385450       -47.9152710114  1.87E-02
    15 OT SD       0.15E+00   24.2     0.11767771       -48.0000694889 -8.48E-02
    16 OT DIIS     0.15E+00   23.3     0.22326464       -47.5265430035  4.74E-01
    17 OT SD       0.15E+00   23.7     0.07113573       -48.0885008740 -5.62E-01
    18 OT DIIS     0.15E+00   24.3     0.14775410       -48.1284452274 -3.99E-02
    19 OT DIIS     0.15E+00   25.1     0.07165911       -48.0655097306  6.29E-02
    20 OT DIIS     0.15E+00   23.9     0.06490416       -48.1123534642 -4.68E-02

  Leaving inner SCF loop after reaching    20 steps.


  Electronic density on regular grids:        -14.0000000000       -0.0000000000
  Core density on regular grids:               14.0000000000       -0.0000000000
  Total charge density on r-space grids:       -0.0000000000
  Total charge density g-space grids:          -0.0000000000

  Overlap energy of the core charge distribution:               0.00000000000000
  Self energy of the core charge distribution:               -128.62486544472569
  Core Hamiltonian energy:                                     36.06426158421655
  Hartree energy:                                              53.60916479355133
  Exchange-correlation energy:                                 -9.16091439725731

  Total energy:                                               -48.11235346421511

  outer SCF iter =    1 RMS gradient =   0.65E-01 energy =        -48.1123534642

  ----------------------------------- OT ---------------------------------------
  Minimizer      : DIIS                : direct inversion
                                         in the iterative subspace
                                         using   7 DIIS vectors
                                         safer DIIS on
  Preconditioner : FULL_ALL            : diagonalization, state selective
  Precond_solver : DEFAULT
  stepsize       :    0.15000000                  energy_gap     :    0.08000000
  eps_taylor     :   0.10000E-15                  max_taylor     :             4
  ----------------------------------- OT ---------------------------------------

  Step     Update method      Time    Convergence         Total energy    Change
  ------------------------------------------------------------------------------
     1 OT DIIS     0.15E+00   71.5     0.09352116       -48.1023328425  1.00E-02
     2 OT DIIS     0.15E+00   24.0     0.22683252       -47.8737509161  2.29E-01
     3 OT DIIS     0.15E+00   23.8     0.05826888       -48.2924872555 -4.19E-01
     4 OT DIIS     0.15E+00   23.8     0.04656968       -48.3134894222 -2.10E-02
     5 OT DIIS     0.15E+00   23.8     0.02919070       -48.3201127103 -6.62E-03
     6 OT DIIS     0.15E+00   23.5     0.01139292       -48.3279415414 -7.83E-03
     7 OT DIIS     0.15E+00   24.0     0.00164261       -48.3288648779 -9.23E-04
     8 OT DIIS     0.15E+00   23.7     0.00029071       -48.3288893850 -2.45E-05
     9 OT DIIS     0.15E+00   23.7     0.00016208       -48.3288906273 -1.24E-06
    10 OT DIIS     0.15E+00   23.6     0.00004938       -48.3288908223 -1.95E-07
    11 OT DIIS     0.15E+00   23.9     0.00000287       -48.3288908418 -1.94E-08
    12 OT DIIS     0.15E+00   24.2     0.00000116       -48.3288908420 -1.84E-10
    13 OT DIIS     0.15E+00   24.2     0.00000021       -48.3288908420 -2.04E-11
    14 OT DIIS     0.15E+00   23.8     0.00000005       -48.3288908420  2.70E-13

  *** SCF run converged in    14 steps ***


  Electronic density on regular grids:        -14.0000000000        0.0000000000
  Core density on regular grids:               14.0000000000       -0.0000000000
  Total charge density on r-space grids:        0.0000000000
  Total charge density g-space grids:           0.0000000000

  Overlap energy of the core charge distribution:               0.00000000000000
  Self energy of the core charge distribution:               -128.62486544472569
  Core Hamiltonian energy:                                     35.80732875759914
  Hartree energy:                                              53.64486644383111
  Exchange-correlation energy:                                 -9.15622059867565

  Total energy:                                               -48.32889084197107

  outer SCF iter =    2 RMS gradient =   0.53E-07 energy =        -48.3288908420
  outer SCF loop converged in   2 iterations or   34 steps


 !-----------------------------------------------------------------------------!
                     Mulliken Population Analysis

 #  Atom  Element  Kind  Atomic population                           Net charge
       1     F        1          7.000000                              0.000000
       2     F        1          7.000000                             -0.000000
 # Total charge                             14.000000                  0.000000

 !-----------------------------------------------------------------------------!

 !-----------------------------------------------------------------------------!
                           Hirshfeld Charges

  #Atom  Element  Kind  Ref Charge     Population                    Net charge
      1       F      1       7.000          7.000                         0.000
      2       F      1       7.000          7.000                         0.000

  Total Charge                                                            0.001
 !-----------------------------------------------------------------------------!

 *******************************************************************************
 **                                                                           **
 **         ######## #######   #######   ######## #######  ########           **
 **            ##    ##     ## ##     ## ##       ##   ##     ##              **
 **            ##    ##     ## ##     ## ######   #######     ##              **
 **            ##    ##     ## ##     ## ##       ##          ##              **
 **            ##    #######   #######   ##       ##          ##              **
 **                                                                           **
 *******************************************************************************
 KERNEL|                                                                    FULL
 FUNCTIONAL| PBE:
 FUNCTIONAL| J.P.Perdew, K.Burke, M.Ernzerhof, Phys. Rev. Letter, vol. 77, n 18,
 FUNCTIONAL|  pp. 3865-3868, (1996) {spin unpolarized}                          
 KERNEL| Spin symmetry of excitations                                    Triplet
 TDDFPT| Number of states calculated                                          10
 TDDFPT| Number of Davidson iterations                                        20
 TDDFPT| Davidson iteration convergence                                0.100E-07
 TDDFPT| Max. number of Krylov space vectors                                  60
 TDDFPT| Molecular Orbitals:        Spin       AOs       Occ      Virt     Total
 TDDFPT|                               1        60         7        53        60

 *******************************************************************************
 **                                                                           **
 **                            ####### ####### #######                        **
 **                        #   ##      ##   ## ##                             **
 **                       ###  ######  ##   ## ##                             **
 **                        #       ##  ##   ## ##                             **
 **                            ######  ####### #######                        **
 **                 Based on the xas module from Augustin Bussy               **
 *******************************************************************************
 
 -------------------------------------------------------------------------------
 -                      TDDFPT TRIPLET ENERGIES                                 -
 -------------------------------------------------------------------------------
 
 -------------------------------------------------------------------------------
 -                            TDDFPT Initial Guess                             -
 -------------------------------------------------------------------------------
          State         Occupied      ->      Virtual          Excitation
          number         orbital              orbital          energy (eV)
 -------------------------------------------------------------------------------
             1                7                    8              3.66466
             2                6                    8              3.66466
             3                5                    8              7.03770
             4                4                    8              7.03770
             5                3                    8              9.56878
             6                7                    9             10.42596
             7                6                    9             10.42596
             8                7                   10             11.38049
             9                6                   10             11.38049
            10                7                   11             11.72081

      Number of active states:                                        371
 -------------------------------------------------------------------------------
 
 -------------------------------------------------------------------------------
 -                      TDDFPT WAVEFUNCTION OPTIMIZATION                       -
 -------------------------------------------------------------------------------

          Step            Time         Convergence           Conv. states
 -------------------------------------------------------------------------------

    State    Exc. energy (eV)      Convergence (eV)
        1       2.7080845            -9.5658E-01
        2       2.7080846            -9.5658E-01
        3       6.1625269            -8.7518E-01
        4       6.1625270            -8.7518E-01
        5       7.4141019            -2.1547E+00
        6      10.3064319            -1.1953E-01
        7      10.3064319            -1.1953E-01
        8      11.2712543            -1.0923E-01
        9      11.2712543            -1.0923E-01
       10      11.6575353            -6.3274E-02
 
             1           115.8          7.9183E-02                      0

    State    Exc. energy (eV)      Convergence (eV)
        1       2.6679133            -4.0171E-02
        2       2.6679134            -4.0171E-02
        3       6.1243706            -3.8156E-02
        4       6.1243707            -3.8156E-02
        5       7.2992293            -1.1487E-01
        6      10.2988182            -7.6137E-03
        7      10.2988183            -7.6137E-03
        8      11.2634575            -7.7968E-03
        9      11.2634575            -7.7968E-03
       10      11.5878484            -6.9687E-02
 
             2           125.1          4.2215E-03                      0

    State    Exc. energy (eV)      Convergence (eV)
        1       2.6679025            -1.0807E-05
        2       2.6679026            -1.0807E-05
        3       6.1243601            -1.0521E-05
        4       6.1243601            -1.0521E-05
        5       7.2989824            -2.4696E-04
        6      10.2988138            -4.4683E-06
        7      10.2988138            -4.4683E-06
        8      11.2634493            -8.1524E-06
        9      11.2634493            -8.1524E-06
       10      11.5783129            -9.5355E-03
 
             3           128.3          3.5042E-04                      0

    State    Exc. energy (eV)      Convergence (eV)
        1       2.6679025            -1.2835E-09
        2       2.6679026            -1.2835E-09
        3       6.1243601            -1.8620E-09
        4       6.1243601            -1.8620E-09
        5       7.2989820            -3.6118E-07
        6      10.2988137            -4.6738E-10
        7      10.2988138            -4.6738E-10
        8      11.2634493            -1.7607E-09
        9      11.2634493            -1.7607E-09
       10      11.4991228            -7.9190E-02
 
             4           132.0          2.9102E-03                      8

    State    Exc. energy (eV)      Convergence (eV)
        1       2.6679025            -6.5708E-14
        2       2.6679026            -4.7204E-14
        3       6.1243601            -1.2613E-13
        4       6.1243601            -1.2915E-13
        5       7.2989820            -2.5097E-10
        6      10.2988137            -3.3232E-14
        7      10.2988138            -4.3806E-14
        8      11.2634493            -4.3806E-13
        9      11.2634493            -4.3201E-13
       10      11.4984024            -7.2037E-04
 
             5           140.2          2.6473E-05                      9

    State    Exc. energy (eV)      Convergence (eV)
        1       2.6679025            -1.3972E-14
        2       2.6679026            -1.5483E-14
        3       6.1243601            -5.2869E-15
        4       6.1243601            -2.2658E-15
        5       7.2989820            -2.7190E-13
        6      10.2988137            -1.3595E-14
        7      10.2988138            -3.0211E-15
        8      11.2634493             1.5105E-15
        9      11.2634493             7.5527E-15
       10      11.4984010            -1.4311E-06
 
             6            86.0          5.2592E-08                      9
 ------------------------- Restart Davidson iterations -------------------------

    State    Exc. energy (eV)      Convergence (eV)
        1       2.6679025             3.7763E-15
        2       2.6679026             6.4198E-15
        3       6.1243601             6.7974E-15
        4       6.1243601             8.3079E-15
        5       7.2989820            -4.5316E-15
        6      10.2988137             7.5527E-15
        7      10.2988138            -1.5105E-15
        8      11.2634493             2.1147E-14
        9      11.2634493            -3.7763E-14
       10      11.4984010             1.5105E-15
 
             7            84.4          1.3878E-15                     10
 
 -------------------------------------------------------------------------------
 -  TDDFPT run converged in 7 iteration(s) 
 -------------------------------------------------------------------------------

 R-TDDFPT states of multiplicity 3
 Transition dipoles calculated using length formulation

         State    Excitation        Transition dipole (a.u.)        Oscillator
         number   energy (eV)       x           y           z     strength (a.u.)
         ------------------------------------------------------------------------
 TDDFPT|      1       2.66790   0.0000E+00  0.0000E+00  0.0000E+00   0.00000E+00
 TDDFPT|      2       2.66790   0.0000E+00  0.0000E+00  0.0000E+00   0.00000E+00
 TDDFPT|      3       6.12436   0.0000E+00  0.0000E+00  0.0000E+00   0.00000E+00
 TDDFPT|      4       6.12436   0.0000E+00  0.0000E+00  0.0000E+00   0.00000E+00
 TDDFPT|      5       7.29898   0.0000E+00  0.0000E+00  0.0000E+00   0.00000E+00
 TDDFPT|      6      10.29881   0.0000E+00  0.0000E+00  0.0000E+00   0.00000E+00
 TDDFPT|      7      10.29881   0.0000E+00  0.0000E+00  0.0000E+00   0.00000E+00
 TDDFPT|      8      11.26345   0.0000E+00  0.0000E+00  0.0000E+00   0.00000E+00
 TDDFPT|      9      11.26345   0.0000E+00  0.0000E+00  0.0000E+00   0.00000E+00
 TDDFPT|     10      11.49840   0.0000E+00  0.0000E+00  0.0000E+00   0.00000E+00

 TDDFPT : CheckSum  =  0.100010E+01
 
 -------------------------------------------------------------------------------
 -                            Excitation analysis                              -
 -------------------------------------------------------------------------------
        State             Occupied              Virtual             Excitation
        number             orbital              orbital             amplitude
 -------------------------------------------------------------------------------
             1   2.66790 eV
                                 7                    8               0.999357
             2   2.66790 eV
                                 6                    8              -0.999357
             3   6.12436 eV
                                 5                    8               0.999389
             4   6.12436 eV
                                 4                    8               0.999389
             5   7.29898 eV
                                 3                    8              -0.997077
             6  10.29881 eV
                                 7                    9              -0.999647
             7  10.29881 eV
                                 6                    9               0.999647
             8  11.26345 eV
                                 7                   10              -0.998986
             9  11.26345 eV
                                 6                   10               0.998986
            10  11.49840 eV
                                 6                   11              -0.703161
                                 7                   12               0.702141
                                 6                   12               0.070072
                                 7                   11               0.070072
 -------------------------------------------------------------------------------
 
 -------------------------------------------------------------------------------
 -                            Natural Orbital analysis                         -
 -------------------------------------------------------------------------------
   STATE NR.      1             2.66790 eV
     Particle-Hole state: 1   Spin:1     Eigenvalue: 0.99933   Sum Eigv: 0.99933
   STATE NR.      2             2.66790 eV
     Particle-Hole state: 1   Spin:1     Eigenvalue: 0.99933   Sum Eigv: 0.99933
   STATE NR.      3             6.12436 eV
     Particle-Hole state: 1   Spin:1     Eigenvalue: 0.99929   Sum Eigv: 0.99929
   STATE NR.      4             6.12436 eV
     Particle-Hole state: 1   Spin:1     Eigenvalue: 0.99929   Sum Eigv: 0.99929
   STATE NR.      5             7.29898 eV
     Particle-Hole state: 1   Spin:1     Eigenvalue: 0.99886   Sum Eigv: 0.99886
   STATE NR.      6            10.29881 eV
     Particle-Hole state: 1   Spin:1     Eigenvalue: 0.99939   Sum Eigv: 0.99939
   STATE NR.      7            10.29881 eV
     Particle-Hole state: 1   Spin:1     Eigenvalue: 0.99939   Sum Eigv: 0.99939
   STATE NR.      8            11.26345 eV
     Particle-Hole state: 1   Spin:1     Eigenvalue: 0.99864   Sum Eigv: 0.99864
   STATE NR.      9            11.26345 eV
     Particle-Hole state: 1   Spin:1     Eigenvalue: 0.99864   Sum Eigv: 0.99864
   STATE NR.     10            11.49840 eV
     Particle-Hole state: 1   Spin:1     Eigenvalue: 0.49965   Sum Eigv: 0.49965
     Particle-Hole state: 2   Spin:1     Eigenvalue: 0.49821   Sum Eigv: 0.99785
 -------------------------------------------------------------------------------
 
                       triplet excitations finished                             
                                                                                
 -------------------------------------------------------------------------------
 -                      TDDFPT SINGLET ENERGIES                                -
 -------------------------------------------------------------------------------
 
 -------------------------------------------------------------------------------
 -                            TDDFPT Initial Guess                             -
 -------------------------------------------------------------------------------
          State         Occupied      ->      Virtual          Excitation
          number         orbital              orbital          energy (eV)
 -------------------------------------------------------------------------------
             1                7                    8              3.66466
             2                6                    8              3.66466
             3                5                    8              7.03770
             4                4                    8              7.03770
             5                3                    8              9.56878
             6                7                    9             10.42596
             7                6                    9             10.42596
             8                7                   10             11.38049
             9                6                   10             11.38049
            10                7                   11             11.72081

      Number of active states:                                        371
 -------------------------------------------------------------------------------
 
 -------------------------------------------------------------------------------
 -                      TDDFPT WAVEFUNCTION OPTIMIZATION                       -
 -------------------------------------------------------------------------------

          Step            Time         Convergence           Conv. states
 -------------------------------------------------------------------------------

    State    Exc. energy (eV)      Convergence (eV)
        1       4.3775072             7.1284E-01
        2       4.3775072             7.1284E-01
        3       7.6430003             6.0530E-01
        4       7.6430003             6.0530E-01
        5      10.4643205             8.9554E-01
        6      10.4643206             3.8364E-02
        7      11.3736863             9.4773E-01
        8      11.3736863            -6.8006E-03
        9      11.7102422             3.2976E-01
       10      21.0393105             9.3185E+00
 
             1           116.2          3.4245E-01                      0

    State    Exc. energy (eV)      Convergence (eV)
        1       4.3234027            -5.4105E-02
        2       4.3234027            -5.4105E-02
        3       7.6042681            -3.8732E-02
        4       7.6042681            -3.8732E-02
        5      10.4536285            -1.0692E-02
        6      10.4536285            -1.0692E-02
        7      11.3697118            -3.9744E-03
[...]
 -                                                                             -
 -                                DBCSR STATISTICS                             -
 -                                                                             -
 -------------------------------------------------------------------------------
 COUNTER                                    TOTAL       BLAS       SMM       ACC
 flops     7 x     7 x     7               201684       0.0%    100.0%      0.0%
 flops    30 x    21 x    30               604800       0.0%    100.0%      0.0%
 flops    30 x    32 x    30               921600       0.0%    100.0%      0.0%
 flops    60 x     7 x     7              1011360       0.0%    100.0%      0.0%
 flops    60 x     7 x    30              4082400       0.0%    100.0%      0.0%
 flops    30 x    30 x     7             11907000       0.0%    100.0%      0.0%
 flops     7 x     7 x    30             12571440       0.0%    100.0%      0.0%
 flops    30 x     7 x    30             43696800       0.0%    100.0%      0.0%
 flops inhomo. stacks                           0       0.0%      0.0%      0.0%
 flops total                        74.997084E+06       0.0%    100.0%      0.0%
 flops max/rank                     44.614284E+06       0.0%    100.0%      0.0%
 matmuls inhomo. stacks                         0       0.0%      0.0%      0.0%
 matmuls total                               9349       0.0%    100.0%      0.0%
 number of processed stacks                  7284       0.0%    100.0%      0.0%
 average stack size                                     0.0       1.3       0.0
 marketing flops                    78.977840E+06
 -------------------------------------------------------------------------------
 # multiplications                           1713
 max memory usage/rank             523.153408E+06
 # max total images/rank                        2
 # max 3D layers                                1
 # MPI messages exchanged                 6358656
 MPI messages size (bytes):
  total size                       416.459200E+06
  min size                           0.000000E+00
  max size                          14.400000E+03
  average size                      65.494850E+00
 MPI breakdown and total messages size (bytes):
             size <=      128             6289053                        0
       128 < size <=     8192               46443                 82955264
      8192 < size <=    32768               23160                333504000
     32768 < size <=   131072                   0                        0
    131072 < size <=  4194304                   0                        0
   4194304 < size <= 16777216                   0                        0
  16777216 < size                               0                        0
 -------------------------------------------------------------------------------

 *** WARNING in dbcsr_mm.F:291 :: Using a non-square number of MPI ranks ***
 *** might lead to poor performance. Used ranks: 128 Suggested: 121 256  ***

 -------------------------------------------------------------------------------
 -                                                                             -
 -                      DBCSR MESSAGE PASSING PERFORMANCE                      -
 -                                                                             -
 -------------------------------------------------------------------------------
 ROUTINE             CALLS      AVE VOLUME [Bytes]
 MP_Bcast                9                     12.
 MP_Allreduce         7619                      8.
 MP_Alltoall         19596                  35162.
 MP_ISend           107056                    388.
 MP_IRecv           106190                    271.
 -------------------------------------------------------------------------------

 -------------------------------------------------------------------------------
 -                                                                             -
 -                                DBM STATISTICS                               -
 -                                                                             -
 -------------------------------------------------------------------------------
    M  x    N  x    K                                          COUNT     PERCENT
 -------------------------------------------------------------------------------

 -------------------------------------------------------------------------------
 -                                                                             -
 -                                GRID STATISTICS                              -
 -                                                                             -
 -------------------------------------------------------------------------------
 LP    KERNEL             BACKEND                              COUNT     PERCENT
 2     collocate ortho    CPU                                  27966      26.45%
 2     integrate ortho    CPU                                  27492      26.01%
 3     collocate ortho    CPU                                  14868      14.06%
 3     integrate ortho    CPU                                  14616      13.83%
 1     collocate ortho    CPU                                   7434       7.03%
 1     integrate ortho    CPU                                   7308       6.91%
 4     collocate ortho    CPU                                   2124       2.01%
 4     integrate ortho    CPU                                   2088       1.98%
 0     collocate ortho    CPU                                    531       0.50%
 0     integrate ortho    CPU                                    522       0.49%
 0     collocate general  CPU                                    512       0.48%
 0     integrate general  CPU                                    256       0.24%
 -------------------------------------------------------------------------------

 MEMORY| Estimated peak process memory [MiB]                                 500

 -------------------------------------------------------------------------------
 ----                             MULTIGRID INFO                            ----
 -------------------------------------------------------------------------------
 count for grid        1:         975477          cutoff [a.u.]          600.00
 count for grid        2:         469847          cutoff [a.u.]          200.00
 count for grid        3:         277811          cutoff [a.u.]           66.67
 count for grid        4:         168993          cutoff [a.u.]           22.22
 count for grid        5:           8972          cutoff [a.u.]            7.41
 total gridlevel count  :        1901100

 -------------------------------------------------------------------------------
 -                                                                             -
 -                         MESSAGE PASSING PERFORMANCE                         -
 -                                                                             -
 -------------------------------------------------------------------------------

 ROUTINE             CALLS      AVE VOLUME [Bytes]
 MP_Group                6
 MP_Bcast              419                 418510.
 MP_Allreduce         6285                    249.
 MP_Sync               802
 MP_Alltoall          4900                1520762.
 MP_SendRecv         89916                  23360.
 MP_ISendRecv        88392                  23360.
 MP_Wait            107612
 MP_comm_split          95
 MP_ISend            21699                 143807.
 MP_IRecv            24302                 128419.
 -------------------------------------------------------------------------------


 -------------------------------------------------------------------------------
 -                                                                             -
 -                           R E F E R E N C E S                               -
 -                                                                             -
 -------------------------------------------------------------------------------
 
 CP2K version 2024.1 (Development Version), the CP2K developers group (2024).
 CP2K is freely available from https://www.cp2k.org/ .

 Kuehne,Thomas D.; Iannuzzi,Marcella; Del Ben,Mauro;
 Rybkin,Vladimir V.; Seewald,Patrick; Stein,Frederick; Laino,Teodoro;
 Khaliullin,Rustam Z.; Schuett,Ole; Schiffmann,Florian; Golze,Dorothea;
 Wilhelm,Jan; Chulkov,Sergey; Bani-Hashemian,Mohammad Hossein;
 Weber,Valery; Borstnik,Urban; Taillefumier,Mathieu;
 Jakobovits,Alice Shoshana; Lazzaro,Alfio; Pabst,Hans; Mueller,Tiziano;
 Schade,Robert; Guidon,Manuel; Andermatt,Samuel; Holmberg,Nico;
 Schenter,Gregory K.; Hehn,Anna; Bussy,Augustin; Belleflamme,Fabian;
 Tabacchi,Gloria; Gloess,Andreas; Lass,Michael; Bethune,Iain;
 Mundy,Christopher J.; Plessl,Christian; Watkins,Matt;
 VandeVondele,Joost; Krack,Matthias; Hutter,Juerg. 
 The Journal of Chemical Physics, 152 (19), (2020). 
 CP2K: An electronic structure and molecular dynamics software package -
 Quickstep: Efficient and accurate electronic structure calculations.
 https://doi.org/10.1063/5.0007045

 Schuett, Ole; Messmer, Peter; Hutter, Juerg; VandeVondele, Joost. 
 Electronic Structure Calculations on Graphics Processing Units, John
 Wiley & Sons, Ltd, 173-190 (2016). 
 GPU-Accelerated Sparse Matrix-Matrix Multiplication for
 Linear Scaling Density Functional Theory.
 https://doi.org/10.1002/9781118670712.ch8

 Heinecke, A; Henry, G; Hutchinson, M; Pabst, H. 
 Proceedings of Intl. Supercomputing Conference, 981-991 (2016). 
 LIBXSMM: Accelerating Small Matrix Multiplications
 by Runtime Code Generation.
 https://doi.org/10.1109/SC.2016.83

 Borstnik, U; VandeVondele, J; Weber, V; Hutter, J. 
 PARALLEL COMPUTING, 40 (5-6), 47-58 (2014). 
 Sparse matrix multiplication: The distributed block-compressed sparse
 row library.
 https://doi.org/10.1016/j.parco.2014.03.012

 Hutter, J; Iannuzzi, M; Schiffmann, F; VandeVondele, J. 
 WIREs Comput Mol Sci., 4 (1), 15-25 (2014). 
 CP2K: atomistic simulations of condensed matter systems.
 https://doi.org/10.1002/wcms.1159

 Krack, M. 
 THEORETICAL CHEMISTRY ACCOUNTS, 114 (1-3), 145-152 (2005). 
 Pseudopotentials for H to Kr optimized for gradient-corrected
 exchange-correlation functionals.
 https://doi.org/10.1007/s00214-005-0655-y

 VandeVondele, J; Krack, M; Mohamed, F; Parrinello, M; Chassaing, T;
 Hutter, J. COMPUTER PHYSICS COMMUNICATIONS, 167 (2), 103-128 (2005). 
 QUICKSTEP: Fast and accurate density functional calculations using a
 mixed Gaussian and plane waves approach.
 https://doi.org/10.1016/j.cpc.2004.12.014

 Frigo, M; Johnson, SG. 
 PROCEEDINGS OF THE IEEE, 93 (2), 216-231 (2005). 
 The design and implementation of FFTW3.
 https://doi.org/10.1109/JPROC.2004.840301

 Iannuzzi, M; Chassaing, T; Wallman, T; Hutter, J. 
 CHIMIA, 59 (7-8), 499-503 (2005). 
 Ground and excited state density functional calculations with the
 Gaussian and augmented-plane-wave method.
 https://doi.org/10.2533/000942905777676164

 VandeVondele, J; Hutter, J. 
 JOURNAL OF CHEMICAL PHYSICS, 118 (10), 4365-4369 (2003). 
 An efficient orbital transformation method for electronic structure
 calculations.
 https://doi.org/10.1063/1.1543154

 Martin,Richard L.. 
 The Journal of Chemical Physics, 118 (11), 4775-4777 (2003). 
 Natural transition orbitals.
 https://doi.org/10.1063/1.1558471

 Martyna, GJ; Tuckerman, ME. 
 JOURNAL OF CHEMICAL PHYSICS, 110 (6), 2810-2821 (1999). 
 A reciprocal space based method for treating long range interactions in
 ab initio and force-field-based calculations in clusters.
 https://doi.org/10.1063/1.477923

 Hartwigsen, C; Goedecker, S; Hutter, J. 
 PHYSICAL REVIEW B, 58 (7), 3641-3662 (1998). 
 Relativistic separable dual-space Gaussian pseudopotentials from H to Rn.
 https://doi.org/10.1103/PhysRevB.58.3641

 Lippert, G; Hutter, J; Parrinello, M. 
 MOLECULAR PHYSICS, 92 (3), 477-487 (1997). 
 A hybrid Gaussian and plane wave density functional scheme.
 https://doi.org/10.1080/002689797170220

 Perdew, JP; Burke, K; Ernzerhof, M. 
 PHYSICAL REVIEW LETTERS, 77 (18), 3865-3868 (1996). 
 Generalized gradient approximation made simple.
 https://doi.org/10.1103/PhysRevLett.77.3865

 Goedecker, S; Teter, M; Hutter, J. 
 PHYSICAL REVIEW B, 54 (3), 1703-1710 (1996). 
 Separable dual-space Gaussian pseudopotentials.
 https://doi.org/10.1103/PhysRevB.54.1703


 -------------------------------------------------------------------------------
 -                                                                             -
 -                                T I M I N G                                  -
 -                                                                             -
 -------------------------------------------------------------------------------
 SUBROUTINE                       CALLS  ASD         SELF TIME        TOTAL TIME
                                MAXIMUM       AVERAGE  MAXIMUM  AVERAGE  MAXIMUM
 CP2K                                 1  1.0    0.041    0.107 2688.723 2688.746
 qs_energies                          1  2.0    0.010    0.058 2687.522 2687.543
 qs_energies_properties               1  3.0    0.000    0.000 1822.044 1822.071
 tddfpt                               1  4.0    0.005    0.052 1822.044 1822.071
 tddfpt_soc_energies                  1  5.0    0.001    0.112 1814.240 1814.264
 tddfpt_energies                      2  6.0    0.000    0.004 1760.206 1760.227
 tddfpt_davidson_solver               4  7.0    0.005    0.025 1651.771 1651.798
 dbcsr_multiply_generic            1713 10.7    0.167    0.384 1211.660 1223.823
 tddfpt_compute_Aop_evects           14  8.0    0.000    0.021 1173.252 1173.393
 fhxc_kernel                         14  9.0    0.005    0.013  970.760  970.856
 scf_env_do_scf                       1  3.0    0.000    0.012  854.996  855.027
 scf_env_do_scf_inner_loop           34  4.0    0.004    0.021  818.430  818.455
 cp_dbcsr_sm_fm_multiply            606  9.3    0.009    0.020  794.237  798.850
 multiply_cannon                   1713 11.7    4.785    5.315  673.171  694.945
 qs_scf_new_mos                      34  5.0    0.000    0.000  661.077  662.279
 qs_scf_loop_do_ot                   34  6.0    0.000    0.000  661.077  662.279
 ot_scf_mini                         34  7.0    0.000    0.000  632.796  634.301
 multiply_cannon_loop              1713 12.7    1.047    1.308  600.786  621.895
 multiply_cannon_multrec          27408 13.7  455.712  514.579  455.720  514.585
 pw_transfer                       3686 12.1    0.179    0.223  458.343  459.860
 fft_wrap_pw1pw2                   3478 13.2    0.016    0.040  458.034  459.560
 fft3d_ps                          3478 15.2    8.885   10.481  454.959  456.934
 ot_mini                             34  8.0    0.002    0.017  428.365  429.037
 dbcsr_complete_redistribute       1778 11.4    0.072    0.129  377.769  383.703
 tddfpt_orthonormalize_psi1_psi      16  7.9    0.009    0.049  367.356  369.358
 cp_dbcsr_sm_fm_multiply_core       606 10.3    0.001    0.013  354.979  362.391
 qs_ot_get_derivative                34  9.0    0.000    0.011  355.478  356.390
 mp_sum_l                          7576 11.1  331.713  346.263  331.713  346.263
 copy_dbcsr_to_fm                   696 10.2    0.008    0.034  322.802  331.146
 mp_alltoall_z22v                  3478 17.2  278.123  284.109  278.123  284.109
 mp_waitall_1                    282720 14.5  197.040  282.739  197.040  282.739
 cp_dbcsr_plus_fm_fm_t_native       141 10.0    0.002    0.008  276.535  278.951
 qs_ot_get_derivative_diag           32 10.0    0.001    0.025  264.033  265.356
 fft_wrap_pw1pw2_600               2073 14.3    0.180    0.214  250.393  252.967
 qs_rho_update_rho_low              177  9.0    0.004    0.025  244.463  247.245
 calculate_rho_elec                 177 10.0    0.054    0.129  244.459  247.244
 copy_fm_to_dbcsr                  1082 10.6    0.004    0.014  219.819  224.637
 integrate_v_rspace                 174  9.8    0.004    0.021  205.464  208.318
 density_rs2pw                      177 11.0    0.009    0.028  204.911  205.945
 mp_alltoall_i22                   2510 12.4  195.091  205.829  195.091  205.829
 tddfpt_apply_energy_diff            14  9.0    0.001    0.001  202.492  202.627
 multiply_cannon_metrocomm3       27408 13.7    0.068    0.102  116.910  199.045
 mp_alltoall_d11v                  7881 12.6  179.017  197.965  179.017  197.965
 potential_pw2rs                    174 10.8    0.009    0.029  196.942  197.254
 dbcsr_desymmetrize_deep            700 11.2    0.023    0.098  164.859  171.820
 mp_sum_dv                         4239 10.2  162.262  167.455  162.262  167.455
 cp_fm_trace_a1b1t1_aa             3880  9.0    8.340   11.846  163.397  165.016
 xc_pw_derive                      1263 11.7    0.007    0.020  154.673  156.259
 make_m2s                          3426 11.7    0.041    0.053  145.438  154.214
 make_images                       3426 12.7    9.814   10.742  144.542  151.153
 tddfpt_apply_xc_analytic           140 10.0    0.085    0.133  149.342  149.691
 x_to_yz                           1196 15.9    3.606    4.230  140.444  142.067
 qs_ot_get_p                         36  7.9    0.000    0.022  135.626  136.959
 make_images_sizes                 3426 13.7    0.004    0.025  133.680  136.566
 mp_alltoall_i44                   3426 14.7  133.676  136.552  133.676  136.552
 tddfpt_compute_residual_vects       10  8.0    0.001    0.011  130.356  130.775
 mp_alltoall_z11v                  1053 16.9  117.355  118.799  117.355  118.799
 qs_ks_update_qs_env                 36  5.0    0.000    0.010  103.173  103.886
 yz_to_x                            878 16.9    0.252    0.376  100.698  102.611
 rebuild_ks_matrix                   34  6.0    0.004    0.017  100.650  101.381
 qs_ks_build_kohn_sham_matrix        34  7.0    0.006    0.025  100.646  101.373
 mp_alltoall_i11v                  6130 12.4   93.300   96.196   93.300   96.196
 xc_pw_divergence                   174 11.6    0.003    0.003   87.418   88.723
 qs_ot_p2m_diag                      34  9.0    0.007    0.046   85.218   86.483
 yz_to_xz                           696 15.8    1.731    2.108   81.325   83.233
 xz_to_yz                           708 16.0    1.795    2.059   80.269   82.305
 xc_calc_2nd_deriv_analytical       140 11.0    3.204    4.378   73.902   74.202
 mp_cart_sub                       1402 12.2   70.258   73.773   70.258   73.773
 transfer_pw2rs                     871 11.8    0.006    0.024   69.847   70.452
 tddfpt_print_nto_analysis            2  7.0    0.002    0.009   69.299   69.589
 mp_allgather_i34                  1713 12.7   66.308   67.859   66.308   67.859
 ot_diis_step                        34  9.0    0.005    0.031   67.207   67.401
 transfer_rs2pw                     887 12.0    0.008    0.027   62.695   63.743
 multiply_cannon_metrocomm1       27408 13.7    0.034    0.051   26.537   58.674
 apply_preconditioner_dbcsr          36 10.0    0.000    0.000   55.537   56.440
 apply_all                           36 11.0    0.000    0.000   55.537   56.440
 fft_wrap_pw1pw2_10                 351 13.9    0.002    0.028   54.105   55.479
 mp_sum_b                          2004 11.6   54.076   54.862   54.076   54.862
 -------------------------------------------------------------------------------

 The number of warnings for this run is : 1
 
 -------------------------------------------------------------------------------
  **** **** ******  **  PROGRAM ENDED AT                 2024-01-15 15:12:47.868
 ***** ** ***  *** **   PROGRAM RAN ON                               nesh-clk603
 **    ****   ******    PROGRAM RAN BY                                  suphc355
 ***** **    ** ** **   PROGRAM PROCESS ID                               3646426
  **** **  *******  **  PROGRAM STOPPED IN /gxfs_work/cau/suphc355/homologes/X2/
                                           PP/F
