 DBCSR| CPU Multiplication driver                                           XSMM (U)
 DBCSR| Multrec recursion limit                                              512 (U)
 DBCSR| Multiplication stack size                                           1000 (D)
 DBCSR| Maximum elements for images                                    UNLIMITED (U)
 DBCSR| Multiplicative factor virtual images                                   1 (U)
 DBCSR| Use multiplication densification                                       T (D)
 DBCSR| Multiplication size stacks                                             3 (U)
 DBCSR| Use memory pool for CPU allocation                                     F (U)
 DBCSR| Number of 3D layers                                               SINGLE (U)
 DBCSR| Use MPI memory allocation                                              F (U)
 DBCSR| Use RMA algorithm                                                      F (U)
 DBCSR| Use Communication thread                                               T (U)
 DBCSR| Communication thread load                                             83 (D)
 DBCSR| MPI: My process id                                                     0
 DBCSR| MPI: Number of processes                                              64
 DBCSR| OMP: Current number of threads                                         2
 DBCSR| OMP: Max number of threads                                             2
 DBCSR| Split modifier for TAS multiplication algorithm                  1.0E+00 (U)


  **** **** ******  **  PROGRAM STARTED AT               2023-07-04 14:35:40.842
 ***** ** ***  *** **   PROGRAM STARTED ON                                  n132
 **    ****   ******    PROGRAM STARTED BY                              suphc355
 ***** **    ** ** **   PROGRAM PROCESS ID                               3429819
  **** **  *******  **  PROGRAM STARTED IN /work_beegfs/suphc355/pbe0_bm_final/p
                                           yranthion/cp2k

 CP2K| version string:                 CP2K version 2023.1 (Development Version)
 CP2K| source code revision number:                                  git:5b5a2b7
 CP2K| cp2kflags: omp libint fftw3 libxc parallel mpi_f08 scalapack cosma xsmm s
 CP2K|            pglib libvori libbqb
 CP2K| is freely available from                            https://www.cp2k.org/
 CP2K| Program compiled at                         Thu Jun 29 10:57:48 CEST 2023
 CP2K| Program compiled on                                           caucluster2
 CP2K| Program compiled for                                                local
 CP2K| Data directory path              /zfshome/suphc355/software/cp2k_dev/data
 CP2K| Input file name                                                   les.inp
 
 GLOBAL| Force Environment number                                              1
 GLOBAL| Basis set file name                                     EMSL_BASIS_SETS
 GLOBAL| Potential file name                                           POTENTIAL
 GLOBAL| MM Potential file name                                     MM_POTENTIAL
 GLOBAL| Coordinate file name                                            lit.xyz
 GLOBAL| Method name                                                        CP2K
 GLOBAL| Project name                                            pyrathione_less
 GLOBAL| Run type                                                         ENERGY
 GLOBAL| FFT library                                                       FFTW3
 GLOBAL| Diagonalization library                                       ScaLAPACK
 GLOBAL| DGEMM library                                                      BLAS
 GLOBAL| Orthonormality check for eigenvectors                          DISABLED
 GLOBAL| Matrix multiplication library                                     COSMA
 GLOBAL| All-to-all communication in single precision                          F
 GLOBAL| FFTs using library dependent lengths                                  F
 GLOBAL| Grid backend                                                       AUTO
 GLOBAL| Global print level                                               MEDIUM
 GLOBAL| MPI I/O enabled                                                       T
 GLOBAL| Total number of message passing processes                            64
 GLOBAL| Number of threads for this process                                    2
 GLOBAL| This output is from process                                           0
 GLOBAL| Stack size for threads created by OpenMP (OMP_STACKSIZE)        default
 GLOBAL| CPU model name                          AMD EPYC 7313 16-Core Processor
 GLOBAL| CPUID                                                              1002

 MEMORY| system memory details [Kb]
 MEMORY|                        rank 0           min           max       average
 MEMORY| MemTotal            528224476     528224476     528224476     528224476
 MEMORY| MemFree             499429328     273857372     508021932     422559238
 MEMORY| Buffers                861868        487028       1044336        734992
 MEMORY| Cached               12440556       3559268      30308780      12187172
 MEMORY| Slab                  6260904       5131764       9811536       7444175
 MEMORY| SReclaimable          2274532       1551924       2476468       2123837
 MEMORY| MemLikelyFree       515006284     307459252     515441048     437605240


 *** Fundamental physical constants (SI units) ***

 *** Literature: B. J. Mohr and B. N. Taylor,
 ***             CODATA recommended values of the fundamental physical
 ***             constants: 2006, Web Version 5.1
 ***             http://physics.nist.gov/constants

 Speed of light in vacuum [m/s]                             2.99792458000000E+08
 Magnetic constant or permeability of vacuum [N/A**2]       1.25663706143592E-06
 Electric constant or permittivity of vacuum [F/m]          8.85418781762039E-12
 Planck constant (h) [J*s]                                  6.62606896000000E-34
 Planck constant (h-bar) [J*s]                              1.05457162825177E-34
 Elementary charge [C]                                      1.60217648700000E-19
 Electron mass [kg]                                         9.10938215000000E-31
 Electron g factor [ ]                                     -2.00231930436220E+00
 Proton mass [kg]                                           1.67262163700000E-27
 Fine-structure constant                                    7.29735253760000E-03
 Rydberg constant [1/m]                                     1.09737315685270E+07
 Avogadro constant [1/mol]                                  6.02214179000000E+23
 Boltzmann constant [J/K]                                   1.38065040000000E-23
 Atomic mass unit [kg]                                      1.66053878200000E-27
 Bohr radius [m]                                            5.29177208590000E-11

 *** Conversion factors ***

 [u] -> [a.u.]                                              1.82288848426455E+03
 [Angstrom] -> [Bohr] = [a.u.]                              1.88972613288564E+00
 [a.u.] = [Bohr] -> [Angstrom]                              5.29177208590000E-01
 [a.u.] -> [s]                                              2.41888432650478E-17
 [a.u.] -> [fs]                                             2.41888432650478E-02
 [a.u.] -> [J]                                              4.35974393937059E-18
 [a.u.] -> [N]                                              8.23872205491840E-08
 [a.u.] -> [K]                                              3.15774647902944E+05
 [a.u.] -> [kJ/mol]                                         2.62549961709828E+03
 [a.u.] -> [kcal/mol]                                       6.27509468713739E+02
 [a.u.] -> [Pa]                                             2.94210107994716E+13
 [a.u.] -> [bar]                                            2.94210107994716E+08
 [a.u.] -> [atm]                                            2.90362800883016E+08
 [a.u.] -> [eV]                                             2.72113838565563E+01
 [a.u.] -> [Hz]                                             6.57968392072181E+15
 [a.u.] -> [1/cm] (wave numbers)                            2.19474631370540E+05
 [a.u./Bohr**2] -> [1/cm]                                   5.14048714338585E+03
 

 CELL_TOP| Volume [angstrom^3]:                                      1000.000000
 CELL_TOP| Vector a [angstrom    10.000     0.000     0.000   |a| =    10.000000
 CELL_TOP| Vector b [angstrom     0.000    10.000     0.000   |b| =    10.000000
 CELL_TOP| Vector c [angstrom     0.000     0.000    10.000   |c| =    10.000000
 CELL_TOP| Angle (b,c), alpha [degree]:                                90.000000
 CELL_TOP| Angle (a,c), beta  [degree]:                                90.000000
 CELL_TOP| Angle (a,b), gamma [degree]:                                90.000000
 CELL_TOP| Numerically orthorhombic:                                         YES
 CELL_TOP| Periodicity                                                      NONE

 CELL| Volume [angstrom^3]:                                          1000.000000
 CELL| Vector a [angstrom]:      10.000     0.000     0.000   |a| =    10.000000
 CELL| Vector b [angstrom]:       0.000    10.000     0.000   |b| =    10.000000
 CELL| Vector c [angstrom]:       0.000     0.000    10.000   |c| =    10.000000
 CELL| Angle (b,c), alpha [degree]:                                    90.000000
 CELL| Angle (a,c), beta  [degree]:                                    90.000000
 CELL| Angle (a,b), gamma [degree]:                                    90.000000
 CELL| Numerically orthorhombic:                                             YES
 CELL| Periodicity                                                          NONE

 CELL_REF| Volume [angstrom^3]:                                      1000.000000
 CELL_REF| Vector a [angstrom    10.000     0.000     0.000   |a| =    10.000000
 CELL_REF| Vector b [angstrom     0.000    10.000     0.000   |b| =    10.000000
 CELL_REF| Vector c [angstrom     0.000     0.000    10.000   |c| =    10.000000
 CELL_REF| Angle (b,c), alpha [degree]:                                90.000000
 CELL_REF| Angle (a,c), beta  [degree]:                                90.000000
 CELL_REF| Angle (a,b), gamma [degree]:                                90.000000
 CELL_REF| Numerically orthorhombic:                                         YES
 CELL_REF| Periodicity                                                      NONE

 *******************************************************************************
 *******************************************************************************
 **                                                                           **
 **     #####                         ##              ##                      **
 **    ##   ##            ##          ##              ##                      **
 **   ##     ##                       ##            ######                    **
 **   ##     ##  ##   ##  ##   #####  ##  ##   ####   ##    #####    #####    **
 **   ##     ##  ##   ##  ##  ##      ## ##   ##      ##   ##   ##  ##   ##   **
 **   ##  ## ##  ##   ##  ##  ##      ####     ###    ##   ######   ######    **
 **    ##  ###   ##   ##  ##  ##      ## ##      ##   ##   ##       ##        **
 **     #######   #####   ##   #####  ##  ##  ####    ##    #####   ##        **
 **           ##                                                    ##        **
 **                                                                           **
 **                                                ... make the atoms dance   **
 **                                                                           **
 **            Copyright (C) by CP2K developers group (2000-2023)             **
 **                      J. Chem. Phys. 152, 194103 (2020)                    **
 **                                                                           **
 *******************************************************************************

 DFT| Spin restricted Kohn-Sham (RKS) calculation                            RKS
 DFT| Multiplicity                                                             1
 DFT| Number of spin states                                                    1
 DFT| Charge                                                                   0
 DFT| Self-interaction correction (SIC)                                       NO
 DFT| Cutoffs: density                                              1.000000E-10
 DFT|          gradient                                             1.000000E-10
 DFT|          tau                                                  1.000000E-10
 DFT|          cutoff_smoothing_range                               0.000000E+00
 DFT| XC density smoothing                                                  NONE
 DFT| XC derivatives                                                          PW

 FUNCTIONAL| PBE:
 FUNCTIONAL| J.P.Perdew, K.Burke, M.Ernzerhof, Phys. Rev. Letter, vol. 77, n 18,
 FUNCTIONAL|  pp. 3865-3868, (1996)sx=0.750sc=1.000{spin unpolarized}           


 QS| Method:                                                                GAPW
 QS| Density plane wave grid type                        NON-SPHERICAL FULLSPACE
 QS| Number of grid levels:                                                    5
 QS| Density cutoff [a.u.]:                                                600.0
 QS| Multi grid cutoff [a.u.]: 1) grid level                               600.0
 QS|                           2) grid level                               200.0
 QS|                           3) grid level                                66.7
 QS|                           4) grid level                                22.2
 QS|                           5) grid level                                 7.4
 QS| Grid level progression factor:                                          3.0
 QS| Relative density cutoff [a.u.]:                                        40.0
 QS| Interaction thresholds: eps_pgf_orb:                                1.0E-30
 QS|                         eps_filter_matrix:                          0.0E+00
 QS|                         eps_core_charge:                            1.0E-17
 QS|                         eps_rho_gspace:                             1.0E-15
 QS|                         eps_rho_rspace:                             1.0E-15
 QS|                         eps_gvg_rspace:                             3.2E-08
 QS|                         eps_ppl:                                    1.0E-02
 QS|                         eps_ppnl:                                   3.2E-10
 QS| GAPW|      One center basis from orbital basis primitives
 QS| GAPW|                   eps_fit:                                    1.0E-04
 QS| GAPW|                   eps_iso:                                    1.0E-12
 QS| GAPW|                   eps_svd:                                    1.0E-08
 QS| GAPW|                   eps_cpc:                                    1.0E-15
 QS| GAPW|   atom-r-grid: quadrature:                                     GC_LOG
 QS| GAPW|      atom-s-grid:  max l :                                          6
 QS| GAPW|      max_l_rho0 :                                                   2


 ATOMIC KIND INFORMATION

  1. Atomic kind: S                                     Number of atoms:       1

     Orbital Basis Set                                                def2-TZVPP

       Number of orbital shell sets:                                          14
       Number of orbital shells:                                              14
       Number of primitive Cartesian functions:                               27
       Number of Cartesian basis functions:                                   48
       Number of spherical basis functions:                                   42
       Norm type:                                                              2

       Normalised Cartesian orbitals:

                        Set   Shell   Orbital            Exponent    Coefficient

                          1       1    1s            60700.928104       1.443686
                                                      9102.610685       2.690342
                                                      2071.416601       4.557613
                                                       586.024768       6.918117
                                                       190.553950       8.681024
                                                        67.630384       7.517583
                                                        25.127307       2.790901

                          2       1    1s              112.574630       2.474372
                                                        34.795554       4.430516
                                                         6.511556      -3.510721

                          3       1    1s                3.239903       1.161718
                                                         1.547716       0.343256

                          4       1    1s                0.405410       0.362102

                          5       1    1s                0.145507       0.167908

                          6       1    1px             564.367160      13.679018
                                                       133.426244      17.895267
                                                        42.468271      19.562932
                                                        15.616528      16.003695
                                                         6.109399       8.381967
                          6       1    1py             564.367160      13.679018
                                                       133.426244      17.895267
                                                        42.468271      19.562932
                                                        15.616528      16.003695
                                                         6.109399       8.381967
                          6       1    1pz             564.367160      13.679018
                                                       133.426244      17.895267
                                                        42.468271      19.562932
                                                        15.616528      16.003695
                                                         6.109399       8.381967

                          7       1    1px               2.440416       4.347804
                          7       1    1py               2.440416       4.347804
                          7       1    1pz               2.440416       4.347804

                          8       1    1px               0.838822       1.144267
                          8       1    1py               0.838822       1.144267
                          8       1    1pz               0.838822       1.144267

                          9       1    1px               0.312887       0.333561
                          9       1    1py               0.312887       0.333561
                          9       1    1pz               0.312887       0.333561

                         10       1    1px               0.107701       0.087946
                         10       1    1py               0.107701       0.087946
                         10       1    1pz               0.107701       0.087946

                         11       1    1dx2              3.756000      16.679354
                         11       1    1dxy              3.756000      28.889489
                         11       1    1dxz              3.756000      28.889489
                         11       1    1dy2              3.756000      16.679354
                         11       1    1dyz              3.756000      28.889489
                         11       1    1dz2              3.756000      16.679354

                         12       1    1dx2              0.812000       1.143227
                         12       1    1dxy              0.812000       1.980127
                         12       1    1dxz              0.812000       1.980127
                         12       1    1dy2              0.812000       1.143227
                         12       1    1dyz              0.812000       1.980127
                         12       1    1dz2              0.812000       1.143227

                         13       1    1dx2              0.273000       0.169705
                         13       1    1dxy              0.273000       0.293937
                         13       1    1dxz              0.273000       0.293937
                         13       1    1dy2              0.273000       0.169705
                         13       1    1dyz              0.273000       0.293937
                         13       1    1dz2              0.273000       0.169705

                         14       1    1fx3              0.557000       0.394574
                         14       1    1fx2y             0.557000       0.882295
                         14       1    1fx2z             0.557000       0.882295
                         14       1    1fxy2             0.557000       0.882295
                         14       1    1fxyz             0.557000       1.528179
                         14       1    1fxz2             0.557000       0.882295
                         14       1    1fy3              0.557000       0.394574
                         14       1    1fy2z             0.557000       0.882295
                         14       1    1fyz2             0.557000       0.882295
                         14       1    1fz3              0.557000       0.394574

       Atomic covalent radius [Angstrom]:                                  1.020

       Atomic van der Waals radius [Angstrom]:                             1.800

     The atoms of this atomic kind are PAW atoms (GAPW):
       Hard Gaussian function radius:                                      1.512
       Rho0 radius:                                                        1.512
       Maximum GTO radius used for PAW projector construction:            24.566

     GAPW Soft Basis Set                                         def2-TZVPP_soft

       Number of orbital shell sets:                                          14
       Number of orbital shells:                                              14
       Number of primitive Cartesian functions:                               12
       Number of Cartesian basis functions:                                   48
       Number of spherical basis functions:                                   42
       Norm type:                                                              2

       Normalised Cartesian orbitals:

                        Set   Shell   Orbital            Exponent    Coefficient

                          1       1    1s         

                          2       1    1s         

                          3       1    1s                3.239903       1.161718
                                                         1.547716       0.343256

                          4       1    1s                0.405410       0.362102

                          5       1    1s                0.145507       0.167908

                          6       1    1px        
                          6       1    1py        
                          6       1    1pz        

                          7       1    1px               2.440416       4.347804
                          7       1    1py               2.440416       4.347804
                          7       1    1pz               2.440416       4.347804

                          8       1    1px               0.838822       1.144267
                          8       1    1py               0.838822       1.144267
                          8       1    1pz               0.838822       1.144267

                          9       1    1px               0.312887       0.333561
                          9       1    1py               0.312887       0.333561
                          9       1    1pz               0.312887       0.333561

                         10       1    1px               0.107701       0.087946
                         10       1    1py               0.107701       0.087946
                         10       1    1pz               0.107701       0.087946

                         11       1    1dx2              3.756000      16.679354
                         11       1    1dxy              3.756000      28.889489
                         11       1    1dxz              3.756000      28.889489
                         11       1    1dy2              3.756000      16.679354
                         11       1    1dyz              3.756000      28.889489
                         11       1    1dz2              3.756000      16.679354

                         12       1    1dx2              0.812000       1.143227
                         12       1    1dxy              0.812000       1.980127
                         12       1    1dxz              0.812000       1.980127
                         12       1    1dy2              0.812000       1.143227
                         12       1    1dyz              0.812000       1.980127
                         12       1    1dz2              0.812000       1.143227

                         13       1    1dx2              0.273000       0.169705
                         13       1    1dxy              0.273000       0.293937
                         13       1    1dxz              0.273000       0.293937
                         13       1    1dy2              0.273000       0.169705
                         13       1    1dyz              0.273000       0.293937
                         13       1    1dz2              0.273000       0.169705

                         14       1    1fx3              0.557000       0.394574
                         14       1    1fx2y             0.557000       0.882295
                         14       1    1fx2z             0.557000       0.882295
                         14       1    1fxy2             0.557000       0.882295
                         14       1    1fxyz             0.557000       1.528179
                         14       1    1fxz2             0.557000       0.882295
                         14       1    1fy3              0.557000       0.394574
                         14       1    1fy2z             0.557000       0.882295
                         14       1    1fyz2             0.557000       0.882295
                         14       1    1fz3              0.557000       0.394574

     AE Potential information for                                            ALL

       Description:                                       All-electron potential
                                          Krack, Parrinello, PCCP 2, 2105 (2000)

       Gaussian exponent of the core charge distribution:               2.834467
       Electronic configuration (s p d ...):                           6  10   0

  2. Atomic kind: C                                     Number of atoms:       5

     Orbital Basis Set                                        Ahlrichs-def2-TZVP

       Number of orbital shell sets:                                          11
       Number of orbital shells:                                              11
       Number of primitive Cartesian functions:                               20
       Number of Cartesian basis functions:                                   36
       Number of spherical basis functions:                                   31
       Norm type:                                                              2

       Normalised Cartesian orbitals:

                        Set   Shell   Orbital            Exponent    Coefficient

                          1       1    1s            13575.349682       0.543591
                                                      2035.233368       1.014554
                                                       463.225624       1.731573
                                                       131.200196       2.691038
                                                        42.853016       3.604455
                                                        15.584186       3.702556

                          2       1    1s                6.206714       1.838354
                                                         2.576490       0.544758

                          3       1    1s                0.576963       0.471815

                          4       1    1s                0.229728       0.236494

                          5       1    1s                0.095164       0.122114

                          6       1    1px              34.697232       1.359665
                                                         7.958262       1.451259
                                                         2.378083       1.270923
                                                         0.814332       0.802572
                          6       1    1py              34.697232       1.359665
                                                         7.958262       1.451259
                                                         2.378083       1.270923
                                                         0.814332       0.802572
                          6       1    1pz              34.697232       1.359665
                                                         7.958262       1.451259
                                                         2.378083       1.270923
                                                         0.814332       0.802572

                          7       1    1px               0.288875       0.301876
                          7       1    1py               0.288875       0.301876
                          7       1    1pz               0.288875       0.301876

                          8       1    1px               0.100568       0.080727
                          8       1    1py               0.100568       0.080727
                          8       1    1pz               0.100568       0.080727

                          9       1    1dx2              1.097000       1.935401
                          9       1    1dxy              1.097000       3.352214
                          9       1    1dxz              1.097000       3.352214
                          9       1    1dy2              1.097000       1.935401
                          9       1    1dyz              1.097000       3.352214
                          9       1    1dz2              1.097000       1.935401

                         10       1    1dx2              0.318000       0.221644
                         10       1    1dxy              0.318000       0.383899
                         10       1    1dxz              0.318000       0.383899
                         10       1    1dy2              0.318000       0.221644
                         10       1    1dyz              0.318000       0.383899
                         10       1    1dz2              0.318000       0.221644

                         11       1    1fx3              0.761000       0.796288
                         11       1    1fx2y             0.761000       1.780553
                         11       1    1fx2z             0.761000       1.780553
                         11       1    1fxy2             0.761000       1.780553
                         11       1    1fxyz             0.761000       3.084008
                         11       1    1fxz2             0.761000       1.780553
                         11       1    1fy3              0.761000       0.796288
                         11       1    1fy2z             0.761000       1.780553
                         11       1    1fyz2             0.761000       1.780553
                         11       1    1fz3              0.761000       0.796288

       Atomic covalent radius [Angstrom]:                                  0.770

       Atomic van der Waals radius [Angstrom]:                             1.700

     The atoms of this atomic kind are PAW atoms (GAPW):
       Hard Gaussian function radius:                                      1.512
       Rho0 radius:                                                        1.512
       Maximum GTO radius used for PAW projector construction:            24.566

     GAPW Soft Basis Set                                 Ahlrichs-def2-TZVP_soft

       Number of orbital shell sets:                                          11
       Number of orbital shells:                                              11
       Number of primitive Cartesian functions:                               11
       Number of Cartesian basis functions:                                   36
       Number of spherical basis functions:                                   31
       Norm type:                                                              2

       Normalised Cartesian orbitals:

                        Set   Shell   Orbital            Exponent    Coefficient

                          1       1    1s         

                          2       1    1s                2.576490       0.544758

                          3       1    1s                0.576963       0.471815

                          4       1    1s                0.229728       0.236494

                          5       1    1s                0.095164       0.122114

                          6       1    1px               2.378083       1.270923
                                                         0.814332       0.802572
                          6       1    1py               2.378083       1.270923
                                                         0.814332       0.802572
                          6       1    1pz               2.378083       1.270923
                                                         0.814332       0.802572

                          7       1    1px               0.288875       0.301876
                          7       1    1py               0.288875       0.301876
                          7       1    1pz               0.288875       0.301876

                          8       1    1px               0.100568       0.080727
                          8       1    1py               0.100568       0.080727
                          8       1    1pz               0.100568       0.080727

                          9       1    1dx2              1.097000       1.935401
                          9       1    1dxy              1.097000       3.352214
                          9       1    1dxz              1.097000       3.352214
                          9       1    1dy2              1.097000       1.935401
                          9       1    1dyz              1.097000       3.352214
                          9       1    1dz2              1.097000       1.935401

                         10       1    1dx2              0.318000       0.221644
                         10       1    1dxy              0.318000       0.383899
                         10       1    1dxz              0.318000       0.383899
                         10       1    1dy2              0.318000       0.221644
                         10       1    1dyz              0.318000       0.383899
                         10       1    1dz2              0.318000       0.221644

                         11       1    1fx3              0.761000       0.796288
                         11       1    1fx2y             0.761000       1.780553
                         11       1    1fx2z             0.761000       1.780553
                         11       1    1fxy2             0.761000       1.780553
                         11       1    1fxyz             0.761000       3.084008
                         11       1    1fxz2             0.761000       1.780553
                         11       1    1fy3              0.761000       0.796288
                         11       1    1fy2z             0.761000       1.780553
                         11       1    1fyz2             0.761000       1.780553
                         11       1    1fz3              0.761000       0.796288

     AE Potential information for                                            ALL

       Description:                                       All-electron potential
                                          Krack, Parrinello, PCCP 2, 2105 (2000)

       Gaussian exponent of the core charge distribution:               4.109048
       Electronic configuration (s p d ...):                           4   2   0

  3. Atomic kind: O                                     Number of atoms:       1

     Orbital Basis Set                                        Ahlrichs-def2-TZVP

       Number of orbital shell sets:                                          11
       Number of orbital shells:                                              11
       Number of primitive Cartesian functions:                               20
       Number of Cartesian basis functions:                                   36
       Number of spherical basis functions:                                   31
       Norm type:                                                              2

       Normalised Cartesian orbitals:

                        Set   Shell   Orbital            Exponent    Coefficient

                          1       1    1s            27032.382631       0.859858
                                                      4052.387139       1.605531
                                                       922.327227       2.745878
                                                       261.240710       4.298767
                                                        85.354641       5.879766
                                                        31.035035       6.316398

                          2       1    1s               12.260861       2.981215
                                                         4.998708       0.941956

                          3       1    1s                1.170311       0.801929

                          4       1    1s                0.464747       0.401165

                          5       1    1s                0.185045       0.201080

                          6       1    1px              63.274955       3.057202
                                                        14.627049       3.384484
                                                         4.450122       2.947426
                                                         1.527580       1.711827
                          6       1    1py              63.274955       3.057202
                                                        14.627049       3.384484
                                                         4.450122       2.947426
                                                         1.527580       1.711827
                          6       1    1pz              63.274955       3.057202
                                                        14.627049       3.384484
                                                         4.450122       2.947426
                                                         1.527580       1.711827

                          7       1    1px               0.529351       0.643606
                          7       1    1py               0.529351       0.643606
                          7       1    1pz               0.529351       0.643606

                          8       1    1px               0.174784       0.161090
                          8       1    1py               0.174784       0.161090
                          8       1    1pz               0.174784       0.161090

                          9       1    1dx2              2.314000       7.145709
                          9       1    1dxy              2.314000      12.376731
                          9       1    1dxz              2.314000      12.376731
                          9       1    1dy2              2.314000       7.145709
                          9       1    1dyz              2.314000      12.376731
                          9       1    1dz2              2.314000       7.145709

                         10       1    1dx2              0.645000       0.764080
                         10       1    1dxy              0.645000       1.323426
                         10       1    1dxz              0.645000       1.323426
                         10       1    1dy2              0.645000       0.764080
                         10       1    1dyz              0.645000       1.323426
                         10       1    1dz2              0.645000       0.764080

                         11       1    1fx3              1.428000       3.281655
                         11       1    1fx2y             1.428000       7.338004
                         11       1    1fx2z             1.428000       7.338004
                         11       1    1fxy2             1.428000       7.338004
                         11       1    1fxyz             1.428000      12.709795
                         11       1    1fxz2             1.428000       7.338004
                         11       1    1fy3              1.428000       3.281655
                         11       1    1fy2z             1.428000       7.338004
                         11       1    1fyz2             1.428000       7.338004
                         11       1    1fz3              1.428000       3.281655

       Atomic covalent radius [Angstrom]:                                  0.730

       Atomic van der Waals radius [Angstrom]:                             1.520

     The atoms of this atomic kind are PAW atoms (GAPW):
       Hard Gaussian function radius:                                      1.512
       Rho0 radius:                                                        1.512
       Maximum GTO radius used for PAW projector construction:            24.566

     GAPW Soft Basis Set                                 Ahlrichs-def2-TZVP_soft

       Number of orbital shell sets:                                          11
       Number of orbital shells:                                              11
       Number of primitive Cartesian functions:                                9
       Number of Cartesian basis functions:                                   36
       Number of spherical basis functions:                                   31
       Norm type:                                                              2

       Normalised Cartesian orbitals:

                        Set   Shell   Orbital            Exponent    Coefficient

                          1       1    1s         

                          2       1    1s         

                          3       1    1s                1.170311       0.801929

                          4       1    1s                0.464747       0.401165

                          5       1    1s                0.185045       0.201080

                          6       1    1px               1.527580       1.711827
                          6       1    1py               1.527580       1.711827
                          6       1    1pz               1.527580       1.711827

                          7       1    1px               0.529351       0.643606
                          7       1    1py               0.529351       0.643606
                          7       1    1pz               0.529351       0.643606

                          8       1    1px               0.174784       0.161090
                          8       1    1py               0.174784       0.161090
                          8       1    1pz               0.174784       0.161090

                          9       1    1dx2              2.314000       7.145709
                          9       1    1dxy              2.314000      12.376731
                          9       1    1dxz              2.314000      12.376731
                          9       1    1dy2              2.314000       7.145709
                          9       1    1dyz              2.314000      12.376731
                          9       1    1dz2              2.314000       7.145709

                         10       1    1dx2              0.645000       0.764080
                         10       1    1dxy              0.645000       1.323426
                         10       1    1dxz              0.645000       1.323426
                         10       1    1dy2              0.645000       0.764080
                         10       1    1dyz              0.645000       1.323426
                         10       1    1dz2              0.645000       0.764080

                         11       1    1fx3              1.428000       3.281655
                         11       1    1fx2y             1.428000       7.338004
                         11       1    1fx2z             1.428000       7.338004
                         11       1    1fxy2             1.428000       7.338004
                         11       1    1fxyz             1.428000      12.709795
                         11       1    1fxz2             1.428000       7.338004
                         11       1    1fy3              1.428000       3.281655
                         11       1    1fy2z             1.428000       7.338004
                         11       1    1fyz2             1.428000       7.338004
                         11       1    1fz3              1.428000       3.281655

     AE Potential information for                                            ALL

       Description:                                       All-electron potential
                                          Krack, Parrinello, PCCP 2, 2105 (2000)

       Gaussian exponent of the core charge distribution:               8.154466
       Electronic configuration (s p d ...):                           4   4   0

  4. Atomic kind: H                                     Number of atoms:       4

     Orbital Basis Set                                        Ahlrichs-def2-TZVP

       Number of orbital shell sets:                                           4
       Number of orbital shells:                                               4
       Number of primitive Cartesian functions:                                6
       Number of Cartesian basis functions:                                    6
       Number of spherical basis functions:                                    6
       Norm type:                                                              2

       Normalised Cartesian orbitals:

                        Set   Shell   Orbital            Exponent    Coefficient

                          1       1    1s               34.061341       0.255630
                                                         5.123575       0.461360
                                                         1.164663       0.681121

                          2       1    1s                0.327230       0.308355

                          3       1    1s                0.103072       0.129648

                          4       1    1px               0.800000       1.078456
                          4       1    1py               0.800000       1.078456
                          4       1    1pz               0.800000       1.078456

       Atomic covalent radius [Angstrom]:                                  0.320

       Atomic van der Waals radius [Angstrom]:                             1.090

     The atoms of this atomic kind are PAW atoms (GAPW):
       Hard Gaussian function radius:                                      1.200
       Rho0 radius:                                                        1.200
       Maximum GTO radius used for PAW projector construction:            24.566

     GAPW Soft Basis Set                                 Ahlrichs-def2-TZVP_soft

       Number of orbital shell sets:                                           4
       Number of orbital shells:                                               4
       Number of primitive Cartesian functions:                                5
       Number of Cartesian basis functions:                                    6
       Number of spherical basis functions:                                    6
       Norm type:                                                              2

       Normalised Cartesian orbitals:

                        Set   Shell   Orbital            Exponent    Coefficient

                          1       1    1s                5.123575       0.461360
                                                         1.164663       0.681121

                          2       1    1s                0.327230       0.308355

                          3       1    1s                0.103072       0.129648

                          4       1    1px               0.800000       1.078456
                          4       1    1py               0.800000       1.078456
                          4       1    1pz               0.800000       1.078456

     AE Potential information for                                            ALL

       Description:                                       All-electron potential
                                          Krack, Parrinello, PCCP 2, 2105 (2000)

       Gaussian exponent of the core charge distribution:              12.500000
       Electronic configuration (s p d ...):                           1   0   0


 MOLECULE KIND INFORMATION


 All atoms are their own molecule, skipping detailed information


 TOTAL NUMBERS AND MAXIMUM NUMBERS

  Total number of            - Atomic kinds:                                   4
                             - Atoms:                                         11
                             - Shell sets:                                    96
                             - Shells:                                        96
                             - Primitive Cartesian functions:                171
                             - Cartesian basis functions:                    288
                             - Spherical basis functions:                    252

  Maximum angular momentum of the orbital basis functions:                     3


 MODULE QUICKSTEP: ATOMIC COORDINATES IN ANGSTROM

   Atom Kind Element         X             Y             Z       Z(eff)     Mass
      1    1 S    16      5.000000      5.000000      2.747532  16.0000  32.0650
      2    2 C     6      5.000000      5.000000      4.407401   6.0000  12.0107
      3    2 C     6      6.207794      5.000000      5.203879   6.0000  12.0107
      4    2 C     6      3.792206      5.000000      5.203879   6.0000  12.0107
      5    2 C     6      6.160389      5.000000      6.547449   6.0000  12.0107
      6    2 C     6      3.839611      5.000000      6.547449   6.0000  12.0107
      7    3 O     8      5.000000      5.000000      7.252468   8.0000  15.9994
      8    4 H     1      7.168458      5.000000      4.707781   1.0000   1.0079
      9    4 H     1      2.831542      5.000000      4.707781   1.0000   1.0079
     10    4 H     1      7.019176      5.000000      7.202434   1.0000   1.0079
     11    4 H     1      2.980824      5.000000      7.202434   1.0000   1.0079



 SCF PARAMETERS         Density guess:                                    ATOMIC
                        --------------------------------------------------------
                        max_scf:                                              20
                        max_scf_history:                                       0
                        max_diis:                                              4
                        --------------------------------------------------------
                        eps_scf:                                        1.00E-07
                        eps_scf_history:                                0.00E+00
                        eps_diis:                                       1.00E-01
                        eps_eigval:                                     1.00E-05
                        --------------------------------------------------------
                        level_shift [a.u.]:                             0.000000
                        --------------------------------------------------------
                        Outer loop SCF in use 
                        No variables optimised in outer loop
                        eps_scf                                         1.00E-07
                        max_scf                                              300
                        DIIS optimization
                        DIIS buffer length                                     3
                        step_size                                       5.00E-01

 PW_GRID| Information for grid number                                          1
 PW_GRID| Grid distributed over                                    64 processors
 PW_GRID| Real space group dimensions                                    64    1
 PW_GRID| the grid is blocked:                                                NO
 PW_GRID| Cutoff [a.u.]                                                   1200.0
 PW_GRID| spherical cutoff:                                                   NO
 PW_GRID|   Bounds   1           -150     149                Points:         300
 PW_GRID|   Bounds   2           -150     149                Points:         300
 PW_GRID|   Bounds   3           -150     149                Points:         300
 PW_GRID| Volume element (a.u.^3)  0.2499E-03     Volume (a.u.^3)      6748.3346
 PW_GRID| Grid span                                                    FULLSPACE
 PW_GRID|   Distribution                         Average         Max         Min
 PW_GRID|   G-Vectors                           421875.0      422100      421800
 PW_GRID|   G-Rays                                1406.2        1407        1406
 PW_GRID|   Real Space Points                   421875.0      450000      360000

 PW_GRID| Information for grid number                                          2
 PW_GRID| Number of the reference grid                                         1
 PW_GRID| Grid distributed over                                    64 processors
 PW_GRID| Real space group dimensions                                    64    1
 PW_GRID| the grid is blocked:                                                NO
 PW_GRID| Cutoff [a.u.]                                                    600.0
 PW_GRID| spherical cutoff:                                                   NO
 PW_GRID|   Bounds   1           -108     107                Points:         216
 PW_GRID|   Bounds   2           -108     107                Points:         216
 PW_GRID|   Bounds   3           -108     107                Points:         216
 PW_GRID| Volume element (a.u.^3)  0.6696E-03     Volume (a.u.^3)      6748.3346
 PW_GRID| Grid span                                                    FULLSPACE
 PW_GRID|   Distribution                         Average         Max         Min
 PW_GRID|   G-Vectors                           157464.0      157680      157248
 PW_GRID|   G-Rays                                 729.0         730         728
 PW_GRID|   Real Space Points                   157464.0      186624      139968

 PW_GRID| Information for grid number                                          3
 PW_GRID| Number of the reference grid                                         2
 PW_GRID| Grid distributed over                                    64 processors
 PW_GRID| Real space group dimensions                                    64    1
 PW_GRID| the grid is blocked:                                                NO
 PW_GRID| Cutoff [a.u.]                                                    200.0
 PW_GRID| spherical cutoff:                                                   NO
 PW_GRID|   Bounds   1            -62      62                Points:         125
 PW_GRID|   Bounds   2            -62      62                Points:         125
 PW_GRID|   Bounds   3            -62      62                Points:         125
 PW_GRID| Volume element (a.u.^3)  0.3455E-02     Volume (a.u.^3)      6748.3346
 PW_GRID| Grid span                                                    FULLSPACE
 PW_GRID|   Distribution                         Average         Max         Min
 PW_GRID|   G-Vectors                            30517.6       30625       30375
 PW_GRID|   G-Rays                                 244.1         245         243
 PW_GRID|   Real Space Points                    30517.6       31250       15625

 PW_GRID| Information for grid number                                          4
 PW_GRID| Number of the reference grid                                         2
 PW_GRID| Grid distributed over                                    64 processors
 PW_GRID| Real space group dimensions                                    64    1
 PW_GRID| the grid is blocked:                                                NO
 PW_GRID| Cutoff [a.u.]                                                     66.7
 PW_GRID| spherical cutoff:                                                   NO
 PW_GRID|   Bounds   1            -36      35                Points:          72
 PW_GRID|   Bounds   2            -36      35                Points:          72
 PW_GRID|   Bounds   3            -36      35                Points:          72
 PW_GRID| Volume element (a.u.^3)  0.1808E-01     Volume (a.u.^3)      6748.3346
 PW_GRID| Grid span                                                    FULLSPACE
 PW_GRID|   Distribution                         Average         Max         Min
 PW_GRID|   G-Vectors                             5832.0        5904        5760
 PW_GRID|   G-Rays                                  81.0          82          80
 PW_GRID|   Real Space Points                     5832.0       10368        5184

 PW_GRID| Information for grid number                                          5
 PW_GRID| Number of the reference grid                                         2
 PW_GRID| Grid distributed over                                    64 processors
 PW_GRID| Real space group dimensions                                     8    8
 PW_GRID| the grid is blocked:                                                NO
 PW_GRID| Cutoff [a.u.]                                                     22.2
 PW_GRID| spherical cutoff:                                                   NO
 PW_GRID|   Bounds   1            -22      22                Points:          45
 PW_GRID|   Bounds   2            -22      22                Points:          45
 PW_GRID|   Bounds   3            -22      22                Points:          45
 PW_GRID| Volume element (a.u.^3)  0.7406E-01     Volume (a.u.^3)      6748.3346
 PW_GRID| Grid span                                                    FULLSPACE
 PW_GRID|   Distribution                         Average         Max         Min
 PW_GRID|   G-Vectors                             1423.8        1485        1395
 PW_GRID|   G-Rays                                  31.6          33          31
 PW_GRID|   Real Space Points                     1423.8        1620        1125

 PW_GRID| Information for grid number                                          6
 PW_GRID| Number of the reference grid                                         2
 PW_GRID| Grid distributed over                                    64 processors
 PW_GRID| Real space group dimensions                                     8    8
 PW_GRID| the grid is blocked:                                                NO
 PW_GRID| Cutoff [a.u.]                                                      7.4
 PW_GRID| spherical cutoff:                                                   NO
 PW_GRID|   Bounds   1            -12      11                Points:          24
 PW_GRID|   Bounds   2            -12      11                Points:          24
 PW_GRID|   Bounds   3            -12      11                Points:          24
 PW_GRID| Volume element (a.u.^3)  0.4882         Volume (a.u.^3)      6748.3346
 PW_GRID| Grid span                                                    FULLSPACE
 PW_GRID|   Distribution                         Average         Max         Min
 PW_GRID|   G-Vectors                              216.0         240         192
 PW_GRID|   G-Rays                                   9.0          10           8
 PW_GRID|   Real Space Points                      216.0         216         216

 POISSON| Solver                                          Martyna-Tuckerman (MT)
 POISSON| MT| Alpha                                                        7.000
 POISSON| MT| Relative cutoff                                                2.0
 POISSON| Periodicity                                                       NONE

 RS_GRID| Information for grid number                                          2
 RS_GRID|   Bounds   1           -108     107                Points:         216
 RS_GRID|   Bounds   2           -108     107                Points:         216
 RS_GRID|   Bounds   3           -108     107                Points:         216
 RS_GRID| Real space distribution over                                  8 groups
 RS_GRID| Real space distribution along direction                              2
 RS_GRID| Border size                                                         44
 RS_GRID| Real space distribution over                                  8 groups
 RS_GRID| Real space distribution along direction                              3
 RS_GRID| Border size                                                         44
 RS_GRID|   Distribution                         Average         Max         Min
 RS_GRID|   Planes                                 115.0         115         115
 RS_GRID|   Distribution                         Average         Max         Min
 RS_GRID|   Planes                                 115.0         115         115

 RS_GRID| Information for grid number                                          3
 RS_GRID|   Bounds   1            -62      62                Points:         125
 RS_GRID|   Bounds   2            -62      62                Points:         125
 RS_GRID|   Bounds   3            -62      62                Points:         125
 RS_GRID| Real space distribution over                                  8 groups
 RS_GRID| Real space distribution along direction                              2
 RS_GRID| Border size                                                         36
 RS_GRID| Real space distribution over                                  8 groups
 RS_GRID| Real space distribution along direction                              3
 RS_GRID| Border size                                                         36
 RS_GRID|   Distribution                         Average         Max         Min
 RS_GRID|   Planes                                  87.6          88          87
 RS_GRID|   Distribution                         Average         Max         Min
 RS_GRID|   Planes                                  87.6          88          87

 RS_GRID| Information for grid number                                          4
 RS_GRID|   Bounds   1            -36      35                Points:          72
 RS_GRID|   Bounds   2            -36      35                Points:          72
 RS_GRID|   Bounds   3            -36      35                Points:          72
 RS_GRID| Real space fully replicated
 RS_GRID| Group size                                                           1

 RS_GRID| Information for grid number                                          5
 RS_GRID|   Bounds   1            -22      22                Points:          45
 RS_GRID|   Bounds   2            -22      22                Points:          45
 RS_GRID|   Bounds   3            -22      22                Points:          45
 RS_GRID| Real space fully replicated
 RS_GRID| Group size                                                           1

 RS_GRID| Information for grid number                                          6
 RS_GRID|   Bounds   1            -12      11                Points:          24
 RS_GRID|   Bounds   2            -12      11                Points:          24
 RS_GRID|   Bounds   3            -12      11                Points:          24
 RS_GRID| Real space fully replicated
 RS_GRID| Group size                                                           1

  HFX_INFO| Replica ID:                                                        1
  HFX_INFO| FRACTION:                                               0.2500000000
  HFX_INFO| Interaction Potential:                                       COULOMB
  HFX_INFO| EPS_SCHWARZ:                                                 1.0E-10
  HFX_INFO| EPS_SCHWARZ_FORCES                                           1.0E-06
  HFX_INFO| EPS_STORAGE_SCALING:                                         1.0E+00
  HFX_INFO| NBINS:                                                            64
  HFX_INFO| BLOCK_SIZE:                                                        1
  HFX_INFO| Number of periodic shells considered:                           NONE
  HFX_INFO| Number of periodic cells considered:                            NONE


 Number of electrons:                                                         58
 Number of occupied orbitals:                                                 29
 Number of molecular orbitals:                                                29

 Number of orbital functions:                                                252
 Number of independent orbital functions:                                    252

 Extrapolation method: initial_guess

 Atomic guess: The first density matrix is obtained in terms of atomic orbitals
               and electronic configurations assigned to each atomic kind

 Guess for atomic kind: S

 Electronic structure
    Total number of core electrons                                          0.00
    Total number of valence electrons                                      16.00
    Total number of electrons                                              16.00
    Multiplicity                                                   not specified
    S      2.00  2.00  2.00
    P      6.00  4.00
 

 *******************************************************************************
                  Iteration          Convergence                     Energy [au]
 *******************************************************************************
                          1        0.760414                    -396.660763946116
                          2        0.373960                    -396.680042640535
                          3        0.415326E-01                -396.691447966171
                          4        0.304933E-02                -396.692099573711
                          5        0.573628E-05                -396.692102327498
                          6        0.168908E-06                -396.692102327503

 Energy components [Hartree]           Total Energy ::         -396.692102327503
                                        Band Energy ::         -227.690891250390
                                     Kinetic Energy ::          397.012572018448
                                   Potential Energy ::         -793.704674345952
                                      Virial (-V/T) ::            1.999192797121
                                        Core Energy ::         -549.302400255813
                                          XC Energy ::          -24.165303573778
                                     Coulomb Energy ::          176.775601502087

 Orbital energies  State     L     Occupation   Energy[a.u.]          Energy[eV]

                       1     0          2.000     -87.767620        -2388.278395
                       2     0          2.000      -7.693639         -209.354567
                       3     0          2.000      -0.628115          -17.091880
 
                       1     1          6.000      -5.745939         -156.354953
                       2     1          4.000      -0.259127           -7.051209
 

 Total Electron Density at R=0:                                      2572.846298

 Guess for atomic kind: C

 Electronic structure
    Total number of core electrons                                          0.00
    Total number of valence electrons                                       6.00
    Total number of electrons                                               6.00
    Multiplicity                                                   not specified
    S      2.00  2.00
    P      2.00
 

 *******************************************************************************
                  Iteration          Convergence                     Energy [au]
 *******************************************************************************
                          1        0.147208                     -37.407693601264
                          2        0.119028                     -37.412727810384
                          3        0.151591E-02                 -37.421609589284
                          4        0.252468E-03                 -37.421611675915
                          5        0.320487E-05                 -37.421611714904
                          6        0.162446E-06                 -37.421611714918

 Energy components [Hartree]           Total Energy ::          -37.421611714918
                                        Band Energy ::          -21.277675770449
                                     Kinetic Energy ::           37.196286588355
                                   Potential Energy ::          -74.617898303274
                                      Virial (-V/T) ::            2.006057731758
                                        Core Energy ::          -50.332032480142
                                          XC Energy ::           -4.732819490143
                                     Coulomb Energy ::           17.643240255367

 Orbital energies  State     L     Occupation   Energy[a.u.]          Energy[eV]

                       1     0          2.000      -9.943251         -270.569607
                       2     0          2.000      -0.498684          -13.569893
 
                       1     1          2.000      -0.196903           -5.358002
 

 Total Electron Density at R=0:                                       121.622713

 Guess for atomic kind: O

 Electronic structure
    Total number of core electrons                                          0.00
    Total number of valence electrons                                       8.00
    Total number of electrons                                               8.00
    Multiplicity                                                   not specified
    S      2.00  2.00
    P      4.00
 

 *******************************************************************************
                  Iteration          Convergence                     Energy [au]
 *******************************************************************************
                          1        0.795742                     -74.377749916481
                          2        0.901947                     -74.365502725646
                          3        0.456232E-01                 -74.464806449153
                          4        0.153629E-02                 -74.465137831621
                          5        0.109933E-03                 -74.465138092698
                          6        0.915377E-06                 -74.465138094272

 Energy components [Hartree]           Total Energy ::          -74.465138094272
                                        Band Energy ::          -40.579515057988
                                     Kinetic Energy ::           74.110924532828
                                   Potential Energy ::         -148.576062627100
                                      Virial (-V/T) ::            2.004779505365
                                        Core Energy ::         -103.050838543159
                                          XC Energy ::           -7.772673502055
                                     Coulomb Energy ::           36.358373950942

 Orbital energies  State     L     Occupation   Energy[a.u.]          Energy[eV]

                       1     0          2.000     -18.754036         -510.323259
                       2     0          2.000      -0.867175          -23.597024
 
                       1     1          4.000      -0.334274           -9.096048
 

 Total Electron Density at R=0:                                       298.855387

 Guess for atomic kind: H

 Electronic structure
    Total number of core electrons                                          0.00
    Total number of valence electrons                                       1.00
    Total number of electrons                                               1.00
    Multiplicity                                                   not specified
    S      1.00
 

 *******************************************************************************
                  Iteration          Convergence                     Energy [au]
 *******************************************************************************
                          1        0.917598E-02                  -0.444895232610
                          2        0.101733E-02                  -0.444969959338
                          3        0.739292E-04                  -0.444971980690
                          4        0.601377E-07                  -0.444971989573

 Energy components [Hartree]           Total Energy ::           -0.444971989573
                                        Band Energy ::           -0.230448725171
                                     Kinetic Energy ::            0.428990089350
                                   Potential Energy ::           -0.873962078923
                                      Virial (-V/T) ::            2.037254707321
                                        Core Energy ::           -0.496265746842
                                          XC Energy ::           -0.234272986041
                                     Coulomb Energy ::            0.285566743311

 Orbital energies  State     L     Occupation   Energy[a.u.]          Energy[eV]

                       1     0          1.000      -0.230449           -6.270829
 

 Total Electron Density at R=0:                                         0.247098
 Re-scaling the density matrix to get the right number of electrons
                  # Electrons              Trace(P)               Scaling factor
                           58                58.000                        1.000


 SCF WAVEFUNCTION OPTIMIZATION

  ----------------------------------- OT ---------------------------------------
  Minimizer      : DIIS                : direct inversion
                                         in the iterative subspace
                                         using   7 DIIS vectors
                                         safer DIIS on
  Preconditioner : FULL_ALL            : diagonalization, state selective
  Precond_solver : DEFAULT
  stepsize       :    0.15000000                  energy_gap     :    0.08000000
  eps_taylor     :   0.10000E-15                  max_taylor     :             4
  ----------------------------------- OT ---------------------------------------

  Step     Update method      Time    Convergence         Total energy    Change
  ------------------------------------------------------------------------------

  HFX_MEM_INFO| Est. max. program size before HFX [MiB]:                     646
  HFX_MEM_INFO| Number of cart. primitive ERI's calculated:           2986311072
  HFX_MEM_INFO| Number of sph. ERI's calculated:                       587081562
  HFX_MEM_INFO| Number of sph. ERI's stored in-core:                   587081562
  HFX_MEM_INFO| Number of sph. ERI's stored on disk:                           0
  HFX_MEM_INFO| Number of sph. ERI's calculated on the fly:                    0
  HFX_MEM_INFO| Total memory consumption ERI's RAM [MiB]:                   1580
  HFX_MEM_INFO| Whereof max-vals [MiB]:                                        5
  HFX_MEM_INFO| Total compression factor ERI's RAM:                         2.83
  HFX_MEM_INFO| Total memory consumption ERI's disk [MiB]:                     0
  HFX_MEM_INFO| Total compression factor ERI's disk:                        0.00
  HFX_MEM_INFO| Size of density/Fock matrix [MiB]:                             0
  HFX_MEM_INFO| Size of buffers [MiB]:                                         2
  HFX_MEM_INFO| Est. max. program size after HFX  [MiB]:                    1035

     1 OT DIIS     0.15E+00   18.9     0.19016503      -634.6774471160 -6.35E+02
     2 OT DIIS     0.15E+00    2.3     0.05777894      -660.7099942949 -2.60E+01
     3 OT DIIS     0.15E+00    1.9     0.01849160      -663.3448998401 -2.63E+00
     4 OT DIIS     0.15E+00    1.8     0.01332405      -663.6205006944 -2.76E-01
     5 OT DIIS     0.15E+00    1.9     0.01101981      -663.9035644137 -2.83E-01
     6 OT DIIS     0.15E+00    1.9     0.00811501      -664.3967529556 -4.93E-01
     7 OT DIIS     0.15E+00    1.8     0.00658607      -664.6546410000 -2.58E-01
     8 OT DIIS     0.15E+00    1.7     0.00542358      -664.8472203370 -1.93E-01
     9 OT DIIS     0.15E+00    1.6     0.00430691      -665.0231740092 -1.76E-01
    10 OT DIIS     0.15E+00    1.8     0.00368848      -665.1191410815 -9.60E-02
    11 OT DIIS     0.15E+00    1.7     0.00324329      -665.1851183117 -6.60E-02
    12 OT DIIS     0.15E+00    1.7     0.00269293      -665.2620726530 -7.70E-02
    13 OT DIIS     0.15E+00    1.5     0.00230339      -665.3185963407 -5.65E-02
    14 OT DIIS     0.15E+00    1.6     0.00215312      -665.3411195438 -2.25E-02
    15 OT DIIS     0.15E+00    1.5     0.00198547      -665.3693473158 -2.82E-02
    16 OT DIIS     0.15E+00    1.5     0.00184434      -665.3931758908 -2.38E-02
    17 OT DIIS     0.15E+00    1.4     0.00174888      -665.4148185985 -2.16E-02
    18 OT DIIS     0.15E+00    1.6     0.00165513      -665.4377933085 -2.30E-02
    19 OT DIIS     0.15E+00    1.5     0.00161128      -665.4570330809 -1.92E-02
    20 OT DIIS     0.15E+00    1.5     0.00158977      -665.4668877700 -9.85E-03

  Leaving inner SCF loop after reaching    20 steps.


  Electronic density on regular grids:        -38.1750681300       19.8249318700
  Core density on regular grids:               58.0000000000       -0.0000000000
  Hard and soft densities (Lebedev):          -78.8304345605      -59.0055081144
  Total Rho_soft + Rho1_hard - Rho1_soft      -57.9999945761
  Total charge density (r-space):               0.0000054239
  Total Rho_soft + Rho0_soft (g-space):         0.0000055102

  Overlap energy of the core charge distribution:               0.00001299824372
  Self energy of the core charge distribution:               -396.05924128744226
  Core Hamiltonian energy:                                   -269.12528245218419
  Hartree energy:                                             119.97977499971634
  Exchange-correlation energy:                                -13.47902354123286
  Hartree-Fock Exchange energy:                               -15.08958973064463

  GAPW| Exc from hard and soft atomic rho1:                   -33.79600096384113
  GAPW| local Eh = 1 center integrals:                        -57.89753779262636

  Total energy:                                              -665.46688777001145

  outer SCF iter =    1 RMS gradient =   0.16E-02 energy =       -665.4668877700

  ----------------------------------- OT ---------------------------------------
  Minimizer      : DIIS                : direct inversion
                                         in the iterative subspace
[...]
 flops     6 x    31 x    29             41555376       0.0%    100.0%      0.0%
 flops    31 x    29 x    29             63196104       0.0%    100.0%      0.0%
 flops    42 x    29 x     6             64602720       0.0%    100.0%      0.0%
 flops     6 x    29 x    42             65830464       0.0%    100.0%      0.0%
 flops    31 x    42 x    29             72721908       0.0%    100.0%      0.0%
 flops    42 x    31 x    29             72721908       0.0%    100.0%      0.0%
 flops    29 x    29 x     6             80736000       0.0%    100.0%      0.0%
 flops    42 x    29 x    42            128094624       0.0%    100.0%      0.0%
 flops    29 x    29 x    42            152732328       0.0%    100.0%      0.0%
 flops    31 x    29 x     6            286097760       0.0%    100.0%      0.0%
 flops     6 x    29 x    31            291534912       0.0%    100.0%      0.0%
 flops    31 x    31 x    29            375729858       0.0%    100.0%      0.0%
 flops    42 x    29 x    31            538731144       0.0%    100.0%      0.0%
 flops    31 x    29 x    42            538731144       0.0%    100.0%      0.0%
 flops    29 x    29 x    31            676386024       0.0%    100.0%      0.0%
 flops    31 x    29 x    31           2406878316       0.0%    100.0%      0.0%
 flops inhomo. stacks                           0       0.0%      0.0%      0.0%
 flops total                         6.173957E+09       0.0%    100.0%      0.0%
 flops max/rank                    796.729104E+06       0.0%    100.0%      0.0%
 matmuls inhomo. stacks                         0       0.0%      0.0%      0.0%
 matmuls total                             189635       0.0%    100.0%      0.0%
 number of processed stacks                116912       0.0%    100.0%      0.0%
 average stack size                                     0.0       1.6       0.0
 marketing flops                     6.898598E+09
 -------------------------------------------------------------------------------
 # multiplications                           2130
 max memory usage/rank               1.293455E+09
 # max total images/rank                        1
 # max 3D layers                                1
 # MPI messages exchanged                 1908480
 MPI messages size (bytes):
  total size                         5.000615E+09
  min size                           0.000000E+00
  max size                          19.488000E+03
  average size                       2.620208E+03
 MPI breakdown and total messages size (bytes):
             size <=      128             1271746                        0
       128 < size <=     8192              514738               3685962224
      8192 < size <=    32768              121996               1314652752
     32768 < size <=   131072                   0                        0
    131072 < size <=  4194304                   0                        0
   4194304 < size <= 16777216                   0                        0
  16777216 < size                               0                        0
 -------------------------------------------------------------------------------
 -                                                                             -
 -                      DBCSR MESSAGE PASSING PERFORMANCE                      -
 -                                                                             -
 -------------------------------------------------------------------------------
 ROUTINE             CALLS      AVE VOLUME [Bytes]
 MP_Bcast               52                     12.
 MP_Allreduce         9588                      8.
 MP_Alltoall         29758                  11635.
 MP_ISend            68152                   2518.
 MP_IRecv            68152                   2194.
 -------------------------------------------------------------------------------

 -------------------------------------------------------------------------------
 -                                                                             -
 -                                DBM STATISTICS                               -
 -                                                                             -
 -------------------------------------------------------------------------------
    M  x    N  x    K                                          COUNT     PERCENT
 -------------------------------------------------------------------------------

 -------------------------------------------------------------------------------
 -                                                                             -
 -                                GRID STATISTICS                              -
 -                                                                             -
 -------------------------------------------------------------------------------
 LP    KERNEL             BACKEND                              COUNT     PERCENT
 1     collocate ortho    CPU                                 256017      12.88%
 1     integrate ortho    CPU                                 251820      12.67%
 2     collocate ortho    CPU                                 220332      11.09%
 2     integrate ortho    CPU                                 216720      10.90%
 0     collocate ortho    CPU                                 174948       8.80%
 0     integrate ortho    CPU                                 172080       8.66%
 3     collocate ortho    CPU                                 152256       7.66%
 3     integrate ortho    CPU                                 149760       7.54%
 2     collocate general  CPU                                 128128       6.45%
 2     integrate general  CPU                                  77440       3.90%
 4     collocate ortho    CPU                                  67161       3.38%
 4     integrate ortho    CPU                                  66060       3.32%
 5     collocate ortho    CPU                                  21777       1.10%
 5     integrate ortho    CPU                                  21420       1.08%
 6     collocate ortho    CPU                                   5124       0.26%
 6     integrate ortho    CPU                                   5040       0.25%
 0     collocate general  CPU                                    704       0.04%
 0     integrate general  CPU                                    704       0.04%
 -------------------------------------------------------------------------------

 MEMORY| Estimated peak process memory [MiB]                                1234

 -------------------------------------------------------------------------------
 ----                             MULTIGRID INFO                            ----
 -------------------------------------------------------------------------------
 count for grid        1:        1301622          cutoff [a.u.]          600.00
 count for grid        2:         195699          cutoff [a.u.]          200.00
 count for grid        3:         181988          cutoff [a.u.]           66.67
 count for grid        4:          52538          cutoff [a.u.]           22.22
 count for grid        5:           2240          cutoff [a.u.]            7.41
 total gridlevel count  :        1734087

 -------------------------------------------------------------------------------
 -                                                                             -
 -                         MESSAGE PASSING PERFORMANCE                         -
 -                                                                             -
 -------------------------------------------------------------------------------

 ROUTINE             CALLS      AVE VOLUME [Bytes]
 MP_Group                6
 MP_Bcast             6410                1074746.
 MP_Allreduce        14694                  19461.
 MP_Sync              1709
 MP_Alltoall          4880                4741329.
 MP_SendRecv         34587                  32544.
 MP_ISendRecv        74466                  22512.
 MP_Wait            156506
 MP_comm_split         101
 MP_ISend            74892                 237956.
 MP_IRecv            76214                 233699.
 -------------------------------------------------------------------------------


 -------------------------------------------------------------------------------
 -                                                                             -
 -                           R E F E R E N C E S                               -
 -                                                                             -
 -------------------------------------------------------------------------------
 
 CP2K version 2023.1 (Development Version), the CP2K developers group (2023).
 CP2K is freely available from https://www.cp2k.org/ .

 Kuehne,Thomas D.; Iannuzzi,Marcella; Del Ben,Mauro;
 Rybkin,Vladimir V.; Seewald,Patrick; Stein,Frederick; Laino,Teodoro;
 Khaliullin,Rustam Z.; Schuett,Ole; Schiffmann,Florian; Golze,Dorothea;
 Wilhelm,Jan; Chulkov,Sergey; Bani-Hashemian,Mohammad Hossein;
 Weber,Valery; Borstnik,Urban; Taillefumier,Mathieu;
 Jakobovits,Alice Shoshana; Lazzaro,Alfio; Pabst,Hans; Mueller,Tiziano;
 Schade,Robert; Guidon,Manuel; Andermatt,Samuel; Holmberg,Nico;
 Schenter,Gregory K.; Hehn,Anna; Bussy,Augustin; Belleflamme,Fabian;
 Tabacchi,Gloria; Gloess,Andreas; Lass,Michael; Bethune,Iain;
 Mundy,Christopher J.; Plessl,Christian; Watkins,Matt;
 VandeVondele,Joost; Krack,Matthias; Hutter,Juerg. 
 The Journal of Chemical Physics, 152 (19), (2020). 
 CP2K: An electronic structure and molecular dynamics software package -
 Quickstep: Efficient and accurate electronic structure calculations.
 https://doi.org/10.1063/5.0007045

 Schuett, Ole; Messmer, Peter; Hutter, Juerg; VandeVondele, Joost. 
 Electronic Structure Calculations on Graphics Processing Units, John
 Wiley & Sons, Ltd, 173-190 (2016). 
 GPU-Accelerated Sparse Matrix-Matrix Multiplication for
 Linear Scaling Density Functional Theory.
 https://doi.org/10.1002/9781118670712.ch8

 Heinecke, A; Henry, G; Hutchinson, M; Pabst, H. 
 Proceedings of Intl. Supercomputing Conference, 981-991 (2016). 
 LIBXSMM: Accelerating Small Matrix Multiplications
 by Runtime Code Generation.
 https://doi.org/10.1109/SC.2016.83

 Borstnik, U; VandeVondele, J; Weber, V; Hutter, J. 
 PARALLEL COMPUTING, 40 (5-6), 47-58 (2014). 
 Sparse matrix multiplication: The distributed block-compressed sparse
 row library.
 https://doi.org/10.1016/j.parco.2014.03.012

 Hutter, J; Iannuzzi, M; Schiffmann, F; VandeVondele, J. 
 WIREs Comput Mol Sci., 4 (1), 15-25 (2014). 
 CP2K: atomistic simulations of condensed matter systems.
 https://doi.org/10.1002/wcms.1159

 Guidon, M; Hutter, J; VandeVondele, J. 
 JOURNAL OF CHEMICAL THEORY AND COMPUTATION, 5 (11), 3010-3021 (2009). 
 Robust Periodic Hartree-Fock Exchange for Large-Scale Simulations Using
 Gaussian Basis Sets.
 https://doi.org/10.1021/ct900494g

 Guidon, M; Schiffmann, F; Hutter, J; VandeVondele, J. 
 JOURNAL OF CHEMICAL PHYSICS, 128 (21), 214104 (2008). 
 Ab initio molecular dynamics using hybrid density functionals.
 https://doi.org/10.1063/1.2931945

 Frigo, M; Johnson, SG. 
 PROCEEDINGS OF THE IEEE, 93 (2), 216-231 (2005). 
 The design and implementation of FFTW3.
 https://doi.org/10.1109/JPROC.2004.840301

 Iannuzzi, M; Chassaing, T; Wallman, T; Hutter, J. 
 CHIMIA, 59 (7-8), 499-503 (2005). 
 Ground and excited state density functional calculations with the
 Gaussian and augmented-plane-wave method.
 https://doi.org/10.2533/000942905777676164

 VandeVondele, J; Hutter, J. 
 JOURNAL OF CHEMICAL PHYSICS, 118 (10), 4365-4369 (2003). 
 An efficient orbital transformation method for electronic structure
 calculations.
 https://doi.org/10.1063/1.1543154

 Martin,Richard L.. 
 The Journal of Chemical Physics, 118 (11), 4775-4777 (2003). 
 Natural transition orbitals.
 https://doi.org/10.1063/1.1558471

 Lippert, G; Hutter, J; Parrinello, M. 
 THEORETICAL CHEMISTRY ACCOUNTS, 103 (2), 124-140 (1999). 
 The Gaussian and augmented-plane-wave density functional method for ab
 initio molecular dynamics simulations.
 https://doi.org/10.1007/s002140050523

 Krack, M; Parrinello, M. 
 PHYSICAL CHEMISTRY CHEMICAL PHYSICS, 2 (10), 2105-2112 (2000). 
 All-electron ab-initio molecular dynamics.
 https://doi.org/10.1039/b001167n

 Martyna, GJ; Tuckerman, ME. 
 JOURNAL OF CHEMICAL PHYSICS, 110 (6), 2810-2821 (1999). 
 A reciprocal space based method for treating long range interactions in
 ab initio and force-field-based calculations in clusters.
 https://doi.org/10.1063/1.477923

 Perdew, JP; Burke, K; Ernzerhof, M. 
 PHYSICAL REVIEW LETTERS, 77 (18), 3865-3868 (1996). 
 Generalized gradient approximation made simple.
 https://doi.org/10.1103/PhysRevLett.77.3865


 -------------------------------------------------------------------------------
 -                                                                             -
 -                                T I M I N G                                  -
 -                                                                             -
 -------------------------------------------------------------------------------
 SUBROUTINE                       CALLS  ASD         SELF TIME        TOTAL TIME
                                MAXIMUM       AVERAGE  MAXIMUM  AVERAGE  MAXIMUM
 CP2K                                 1  1.0    0.231    0.631  271.981  271.983
 qs_energies                          1  2.0    0.000    0.000  269.896  269.898
 qs_energies_properties               1  3.0    0.000    0.000  187.607  187.608
 tddfpt                               1  4.0    0.000    0.000  187.607  187.608
 tddfpt_energies                      3  5.7    0.000    0.001  187.281  187.282
 tddfpt_davidson_solver               4  7.0    0.001    0.001  180.112  180.114
 tddfpt_compute_Aop_evects           14  8.0    0.000    0.000  179.039  179.040
 fhxc_kernel                         14  9.0    0.004    0.006  145.972  145.973
 rs_pw_transfer                    2109 11.7    0.017    0.025   79.788   83.026
 scf_env_do_scf                       1  3.0    0.000    0.000   80.887   80.888
 qs_ks_update_qs_env                 42  5.0    0.000    0.000   65.493   65.726
 rebuild_ks_matrix                   40  6.0    0.000    0.000   65.491   65.724
 qs_ks_build_kohn_sham_matrix        40  7.0    0.006    0.009   65.490   65.724
 scf_env_do_scf_inner_loop           40  4.0    0.001    0.002   60.693   60.694
 mp_waitany                       74892 13.7   49.103   54.753   49.103   54.753
 integrate_v_rspace                 180  9.8    0.006    0.011   52.680   54.727
 integrate_four_center              320 10.8    2.896    5.595   51.896   51.923
 potential_pw2rs                    180 10.8    0.012    0.012   49.709   50.372
 pw_transfer                       4175 12.0    0.254    0.376   46.303   48.196
 fft_wrap_pw1pw2                   3773 13.1    0.019    0.029   45.968   47.922
 fft_wrap_pw1pw2_600               2320 14.2    0.780    0.895   44.731   46.703
 fft3d_ps                          3773 15.1   15.378   18.108   43.355   45.343
 qs_rho_update_rho_low              183  8.9    0.003    0.006   43.430   43.479
 calculate_rho_elec                 183  9.9    0.640    0.798   42.131   42.181
 density_rs2pw                      183 10.9    0.006    0.007   37.676   38.905
 calculate_xc_2nd_deriv_atom        140 10.0    0.439    9.955    1.250   32.680
 prepare_gapw_den                   182  9.5    0.003    0.004   32.412   32.433
 tddfpt_apply_hfx                    14  9.0    0.002    0.003   31.896   31.896
 mp_sum_d                          2658  9.7   27.778   30.945   27.778   30.945
 tddft_hfx_matrix                   280 10.0    0.003    0.005   30.380   30.400
 mp_alltoall_z22v                  3773 17.1   27.145   30.399   27.145   30.399
 integrate_four_center_main         320 11.8    0.073    0.214   24.608   28.744
 integrate_four_center_bin        60467 12.7   24.534   28.706   24.534   28.706
 gaVxcgb_GC                         540 10.6    0.915   27.272    0.915   27.272
 yz_to_x                           1455 16.4    0.298    0.388   22.480   25.202
 mp_waitall_1                    250692 14.4   19.210   24.906   19.210   24.906
 tddfpt_apply_coulomb                70 10.0    0.001    0.001   24.009   24.665
 rs_pw_transfer_RS2PW_600           366 12.7    2.321    2.591   20.372   24.236
 hfx_ks_matrix                       40  8.0    0.001    0.001   21.523   21.532
 tddfpt_apply_xc_analytic           140 10.0    0.139    0.170   20.753   20.927
 init_scf_loop                        2  4.0    0.000    0.000   20.193   20.199
 xc_pw_derive                      1299 11.6    0.005    0.006   18.553   20.026
 rs_pw_transfer_RS2PW_200           183 12.9    0.361    0.416   17.431   19.097
 rs_pw_transfer_PW2RS_600           291 12.4    1.989    2.105   18.047   18.992
 pw_poisson_solve                   110  9.9    0.055    0.059   16.408   17.067
 pw_integral_ab                     110 10.9    0.467    0.494   16.182   16.851
 put_rho0_on_grid                   182 10.5    0.740    1.011   15.485   15.506
 calculate_rho_atom                 728 10.5    3.915   15.222    3.915   15.223
 integrate_vhg0_rspace              110  9.9    0.238    0.324   13.134   13.797
 rs_pw_transfer_PW2RS_200           180 12.8    0.314    0.390   10.324   13.656
 xc_calc_2nd_deriv_analytical       980 11.3    3.693    4.568   12.299   12.455
 xc_pw_divergence                   180 11.6    0.002    0.003   10.883   12.355
 mp_sum_dv                         6485 11.1   11.358   11.810   11.358   11.810
 rs_pw_transfer_PW2RS_70            180 12.8    0.207    0.240    7.936   11.270
 sum_up_and_integrate                40  8.0    0.036    0.040   10.735   11.086
 dbcsr_multiply_generic            2130 10.8    0.048    0.055    8.094   10.222
 mp_sync                           1709 12.5    5.312    9.474    5.312    9.474
 calc_screening_functions             1 10.0    3.823    4.022    8.815    9.285
 powell_optimize                2160339 11.0    8.417    8.876    8.417    8.876
 multiply_cannon                   2130 11.8    0.097    0.107    5.168    8.479
 qs_vxc_create                       40  8.0    0.001    0.001    8.312    8.313
 xc_vxc_pw_create                    40  9.0    0.187    0.219    8.312    8.312
 mp_isend_dm3                      9612 13.7    3.555    8.244    3.555    8.244
 calculate_vxc_atom                  40  8.0    0.072    1.433    7.891    7.894
 grid_collocate_task_list           183 10.9    3.332    7.273    3.332    7.273
 multiply_cannon_loop              2130 12.8    0.049    0.054    3.595    6.808
 mp_sum_dm                         5353 10.8    6.538    6.756    6.538    6.756
 xc_rho_set_and_dset_create          42 10.0    0.053    0.061    5.651    6.701
 cp_dbcsr_sm_fm_multiply            885  9.5    0.010    0.014    6.635    6.665
 calc_pair_dist_radii                 1 10.0    2.186    2.295    5.611    5.892
 x_to_yz                           1592 15.8    0.390    0.484    5.338    5.850
 rs_grid_zero                       764 12.7    5.323    5.618    5.323    5.618
 copy_dbcsr_to_fm                   978 10.4    0.008    0.009    3.941    5.582
 mp_alltoall_i22                   3922 12.5    3.806    5.442    3.806    5.442
 -------------------------------------------------------------------------------

 The number of warnings for this run is : 0
 
 -------------------------------------------------------------------------------
  **** **** ******  **  PROGRAM ENDED AT                 2023-07-04 14:40:35.017
 ***** ** ***  *** **   PROGRAM RAN ON                                      n132
 **    ****   ******    PROGRAM RAN BY                                  suphc355
 ***** **    ** ** **   PROGRAM PROCESS ID                               3429819
  **** **  *******  **  PROGRAM STOPPED IN /work_beegfs/suphc355/pbe0_bm_final/p
                                           yranthion/cp2k
