 DBCSR| CPU Multiplication driver                                           XSMM (U)
 DBCSR| Multrec recursion limit                                              512 (U)
 DBCSR| Multiplication stack size                                           1000 (D)
 DBCSR| Maximum elements for images                                    UNLIMITED (U)
 DBCSR| Multiplicative factor virtual images                                   1 (U)
 DBCSR| Use multiplication densification                                       T (D)
 DBCSR| Multiplication size stacks                                             3 (U)
 DBCSR| Use memory pool for CPU allocation                                     F (U)
 DBCSR| Number of 3D layers                                               SINGLE (U)
 DBCSR| Use MPI memory allocation                                              F (U)
 DBCSR| Use RMA algorithm                                                      F (U)
 DBCSR| Use Communication thread                                               T (U)
 DBCSR| Communication thread load                                             83 (D)
 DBCSR| MPI: My process id                                                     0
 DBCSR| MPI: Number of processes                                              64
 DBCSR| OMP: Current number of threads                                         2
 DBCSR| OMP: Max number of threads                                             2
 DBCSR| Split modifier for TAS multiplication algorithm                  1.0E+00 (U)


  **** **** ******  **  PROGRAM STARTED AT               2023-06-30 12:24:33.817
 ***** ** ***  *** **   PROGRAM STARTED ON                                  n106
 **    ****   ******    PROGRAM STARTED BY                              suphc355
 ***** **    ** ** **   PROGRAM PROCESS ID                                381836
  **** **  *******  **  PROGRAM STARTED IN /work_beegfs/suphc355/pbe0_bm_final/b
                                           ithiophen/cp2k

 CP2K| version string:                 CP2K version 2023.1 (Development Version)
 CP2K| source code revision number:                                  git:5b5a2b7
 CP2K| cp2kflags: omp libint fftw3 libxc parallel mpi_f08 scalapack cosma xsmm s
 CP2K|            pglib libvori libbqb
 CP2K| is freely available from                            https://www.cp2k.org/
 CP2K| Program compiled at                         Thu Jun 29 10:57:48 CEST 2023
 CP2K| Program compiled on                                           caucluster2
 CP2K| Program compiled for                                                local
 CP2K| Data directory path              /zfshome/suphc355/software/cp2k_dev/data
 CP2K| Input file name                                                  cp2k.inp
 
 GLOBAL| Force Environment number                                              1
 GLOBAL| Basis set file name                                     EMSL_BASIS_SETS
 GLOBAL| Potential file name                                           POTENTIAL
 GLOBAL| MM Potential file name                                     MM_POTENTIAL
 GLOBAL| Coordinate file name                                            opt.xyz
 GLOBAL| Method name                                                        CP2K
 GLOBAL| Project name                                                 bithiophen
 GLOBAL| Run type                                                         ENERGY
 GLOBAL| FFT library                                                       FFTW3
 GLOBAL| Diagonalization library                                       ScaLAPACK
 GLOBAL| DGEMM library                                                      BLAS
 GLOBAL| Orthonormality check for eigenvectors                          DISABLED
 GLOBAL| Matrix multiplication library                                     COSMA
 GLOBAL| All-to-all communication in single precision                          F
 GLOBAL| FFTs using library dependent lengths                                  F
 GLOBAL| Grid backend                                                       AUTO
 GLOBAL| Global print level                                               MEDIUM
 GLOBAL| MPI I/O enabled                                                       T
 GLOBAL| Total number of message passing processes                            64
 GLOBAL| Number of threads for this process                                    2
 GLOBAL| This output is from process                                           0
 GLOBAL| Stack size for threads created by OpenMP (OMP_STACKSIZE)        default
 GLOBAL| CPU model name                          AMD EPYC 7313 16-Core Processor
 GLOBAL| CPUID                                                              1002

 MEMORY| system memory details [Kb]
 MEMORY|                        rank 0           min           max       average
 MEMORY| MemTotal            263983476     263983476    1056706448     561254597
 MEMORY| MemFree             256599376     256599376    1045927124     517370623
 MEMORY| Buffers                 43124         43124       1019476        334289
 MEMORY| Cached                 989284        989284      24473876      10781485
 MEMORY| Slab                   505592        505592       7896840       4021705
 MEMORY| SReclaimable           145528        145528       2048928       1326060
 MEMORY| MemLikelyFree       257777312     257777312    1048885512     529812458


 *** Fundamental physical constants (SI units) ***

 *** Literature: B. J. Mohr and B. N. Taylor,
 ***             CODATA recommended values of the fundamental physical
 ***             constants: 2006, Web Version 5.1
 ***             http://physics.nist.gov/constants

 Speed of light in vacuum [m/s]                             2.99792458000000E+08
 Magnetic constant or permeability of vacuum [N/A**2]       1.25663706143592E-06
 Electric constant or permittivity of vacuum [F/m]          8.85418781762039E-12
 Planck constant (h) [J*s]                                  6.62606896000000E-34
 Planck constant (h-bar) [J*s]                              1.05457162825177E-34
 Elementary charge [C]                                      1.60217648700000E-19
 Electron mass [kg]                                         9.10938215000000E-31
 Electron g factor [ ]                                     -2.00231930436220E+00
 Proton mass [kg]                                           1.67262163700000E-27
 Fine-structure constant                                    7.29735253760000E-03
 Rydberg constant [1/m]                                     1.09737315685270E+07
 Avogadro constant [1/mol]                                  6.02214179000000E+23
 Boltzmann constant [J/K]                                   1.38065040000000E-23
 Atomic mass unit [kg]                                      1.66053878200000E-27
 Bohr radius [m]                                            5.29177208590000E-11

 *** Conversion factors ***

 [u] -> [a.u.]                                              1.82288848426455E+03
 [Angstrom] -> [Bohr] = [a.u.]                              1.88972613288564E+00
 [a.u.] = [Bohr] -> [Angstrom]                              5.29177208590000E-01
 [a.u.] -> [s]                                              2.41888432650478E-17
 [a.u.] -> [fs]                                             2.41888432650478E-02
 [a.u.] -> [J]                                              4.35974393937059E-18
 [a.u.] -> [N]                                              8.23872205491840E-08
 [a.u.] -> [K]                                              3.15774647902944E+05
 [a.u.] -> [kJ/mol]                                         2.62549961709828E+03
 [a.u.] -> [kcal/mol]                                       6.27509468713739E+02
 [a.u.] -> [Pa]                                             2.94210107994716E+13
 [a.u.] -> [bar]                                            2.94210107994716E+08
 [a.u.] -> [atm]                                            2.90362800883016E+08
 [a.u.] -> [eV]                                             2.72113838565563E+01
 [a.u.] -> [Hz]                                             6.57968392072181E+15
 [a.u.] -> [1/cm] (wave numbers)                            2.19474631370540E+05
 [a.u./Bohr**2] -> [1/cm]                                   5.14048714338585E+03
 

 CELL_TOP| Volume [angstrom^3]:                                      1000.000000
 CELL_TOP| Vector a [angstrom    10.000     0.000     0.000   |a| =    10.000000
 CELL_TOP| Vector b [angstrom     0.000    10.000     0.000   |b| =    10.000000
 CELL_TOP| Vector c [angstrom     0.000     0.000    10.000   |c| =    10.000000
 CELL_TOP| Angle (b,c), alpha [degree]:                                90.000000
 CELL_TOP| Angle (a,c), beta  [degree]:                                90.000000
 CELL_TOP| Angle (a,b), gamma [degree]:                                90.000000
 CELL_TOP| Numerically orthorhombic:                                         YES
 CELL_TOP| Periodicity                                                      NONE

 CELL| Volume [angstrom^3]:                                          1000.000000
 CELL| Vector a [angstrom]:      10.000     0.000     0.000   |a| =    10.000000
 CELL| Vector b [angstrom]:       0.000    10.000     0.000   |b| =    10.000000
 CELL| Vector c [angstrom]:       0.000     0.000    10.000   |c| =    10.000000
 CELL| Angle (b,c), alpha [degree]:                                    90.000000
 CELL| Angle (a,c), beta  [degree]:                                    90.000000
 CELL| Angle (a,b), gamma [degree]:                                    90.000000
 CELL| Numerically orthorhombic:                                             YES
 CELL| Periodicity                                                          NONE

 CELL_REF| Volume [angstrom^3]:                                      1000.000000
 CELL_REF| Vector a [angstrom    10.000     0.000     0.000   |a| =    10.000000
 CELL_REF| Vector b [angstrom     0.000    10.000     0.000   |b| =    10.000000
 CELL_REF| Vector c [angstrom     0.000     0.000    10.000   |c| =    10.000000
 CELL_REF| Angle (b,c), alpha [degree]:                                90.000000
 CELL_REF| Angle (a,c), beta  [degree]:                                90.000000
 CELL_REF| Angle (a,b), gamma [degree]:                                90.000000
 CELL_REF| Numerically orthorhombic:                                         YES
 CELL_REF| Periodicity                                                      NONE

 *******************************************************************************
 *******************************************************************************
 **                                                                           **
 **     #####                         ##              ##                      **
 **    ##   ##            ##          ##              ##                      **
 **   ##     ##                       ##            ######                    **
 **   ##     ##  ##   ##  ##   #####  ##  ##   ####   ##    #####    #####    **
 **   ##     ##  ##   ##  ##  ##      ## ##   ##      ##   ##   ##  ##   ##   **
 **   ##  ## ##  ##   ##  ##  ##      ####     ###    ##   ######   ######    **
 **    ##  ###   ##   ##  ##  ##      ## ##      ##   ##   ##       ##        **
 **     #######   #####   ##   #####  ##  ##  ####    ##    #####   ##        **
 **           ##                                                    ##        **
 **                                                                           **
 **                                                ... make the atoms dance   **
 **                                                                           **
 **            Copyright (C) by CP2K developers group (2000-2023)             **
 **                      J. Chem. Phys. 152, 194103 (2020)                    **
 **                                                                           **
 *******************************************************************************

 DFT| Spin restricted Kohn-Sham (RKS) calculation                            RKS
 DFT| Multiplicity                                                             1
 DFT| Number of spin states                                                    1
 DFT| Charge                                                                   0
 DFT| Self-interaction correction (SIC)                                       NO
 DFT| Cutoffs: density                                              1.000000E-10
 DFT|          gradient                                             1.000000E-10
 DFT|          tau                                                  1.000000E-10
 DFT|          cutoff_smoothing_range                               0.000000E+00
 DFT| XC density smoothing                                                  NONE
 DFT| XC derivatives                                                          PW

 FUNCTIONAL| PBE:
 FUNCTIONAL| J.P.Perdew, K.Burke, M.Ernzerhof, Phys. Rev. Letter, vol. 77, n 18,
 FUNCTIONAL|  pp. 3865-3868, (1996)sx=0.750sc=1.000{spin unpolarized}           


 QS| Method:                                                                GAPW
 QS| Density plane wave grid type                        NON-SPHERICAL FULLSPACE
 QS| Number of grid levels:                                                    5
 QS| Density cutoff [a.u.]:                                                600.0
 QS| Multi grid cutoff [a.u.]: 1) grid level                               600.0
 QS|                           2) grid level                               200.0
 QS|                           3) grid level                                66.7
 QS|                           4) grid level                                22.2
 QS|                           5) grid level                                 7.4
 QS| Grid level progression factor:                                          3.0
 QS| Relative density cutoff [a.u.]:                                        40.0
 QS| Interaction thresholds: eps_pgf_orb:                                1.0E-30
 QS|                         eps_filter_matrix:                          0.0E+00
 QS|                         eps_core_charge:                            1.0E-17
 QS|                         eps_rho_gspace:                             1.0E-15
 QS|                         eps_rho_rspace:                             1.0E-15
 QS|                         eps_gvg_rspace:                             3.2E-08
 QS|                         eps_ppl:                                    1.0E-02
 QS|                         eps_ppnl:                                   3.2E-10
 QS| GAPW|      One center basis from orbital basis primitives
 QS| GAPW|                   eps_fit:                                    1.0E-04
 QS| GAPW|                   eps_iso:                                    1.0E-12
 QS| GAPW|                   eps_svd:                                    1.0E-08
 QS| GAPW|                   eps_cpc:                                    1.0E-15
 QS| GAPW|   atom-r-grid: quadrature:                                     GC_LOG
 QS| GAPW|      atom-s-grid:  max l :                                          6
 QS| GAPW|      max_l_rho0 :                                                   2


 ATOMIC KIND INFORMATION

  1. Atomic kind: C                                     Number of atoms:       8

     Orbital Basis Set                                        Ahlrichs-def2-TZVP

       Number of orbital shell sets:                                          11
       Number of orbital shells:                                              11
       Number of primitive Cartesian functions:                               20
       Number of Cartesian basis functions:                                   36
       Number of spherical basis functions:                                   31
       Norm type:                                                              2

       Normalised Cartesian orbitals:

                        Set   Shell   Orbital            Exponent    Coefficient

                          1       1    1s            13575.349682       0.543591
                                                      2035.233368       1.014554
                                                       463.225624       1.731573
                                                       131.200196       2.691038
                                                        42.853016       3.604455
                                                        15.584186       3.702556

                          2       1    1s                6.206714       1.838354
                                                         2.576490       0.544758

                          3       1    1s                0.576963       0.471815

                          4       1    1s                0.229728       0.236494

                          5       1    1s                0.095164       0.122114

                          6       1    1px              34.697232       1.359665
                                                         7.958262       1.451259
                                                         2.378083       1.270923
                                                         0.814332       0.802572
                          6       1    1py              34.697232       1.359665
                                                         7.958262       1.451259
                                                         2.378083       1.270923
                                                         0.814332       0.802572
                          6       1    1pz              34.697232       1.359665
                                                         7.958262       1.451259
                                                         2.378083       1.270923
                                                         0.814332       0.802572

                          7       1    1px               0.288875       0.301876
                          7       1    1py               0.288875       0.301876
                          7       1    1pz               0.288875       0.301876

                          8       1    1px               0.100568       0.080727
                          8       1    1py               0.100568       0.080727
                          8       1    1pz               0.100568       0.080727

                          9       1    1dx2              1.097000       1.935401
                          9       1    1dxy              1.097000       3.352214
                          9       1    1dxz              1.097000       3.352214
                          9       1    1dy2              1.097000       1.935401
                          9       1    1dyz              1.097000       3.352214
                          9       1    1dz2              1.097000       1.935401

                         10       1    1dx2              0.318000       0.221644
                         10       1    1dxy              0.318000       0.383899
                         10       1    1dxz              0.318000       0.383899
                         10       1    1dy2              0.318000       0.221644
                         10       1    1dyz              0.318000       0.383899
                         10       1    1dz2              0.318000       0.221644

                         11       1    1fx3              0.761000       0.796288
                         11       1    1fx2y             0.761000       1.780553
                         11       1    1fx2z             0.761000       1.780553
                         11       1    1fxy2             0.761000       1.780553
                         11       1    1fxyz             0.761000       3.084008
                         11       1    1fxz2             0.761000       1.780553
                         11       1    1fy3              0.761000       0.796288
                         11       1    1fy2z             0.761000       1.780553
                         11       1    1fyz2             0.761000       1.780553
                         11       1    1fz3              0.761000       0.796288

       Atomic covalent radius [Angstrom]:                                  0.770

       Atomic van der Waals radius [Angstrom]:                             1.700

     The atoms of this atomic kind are PAW atoms (GAPW):
       Hard Gaussian function radius:                                      1.512
       Rho0 radius:                                                        1.512
       Maximum GTO radius used for PAW projector construction:            24.566

     GAPW Soft Basis Set                                 Ahlrichs-def2-TZVP_soft

       Number of orbital shell sets:                                          11
       Number of orbital shells:                                              11
       Number of primitive Cartesian functions:                               11
       Number of Cartesian basis functions:                                   36
       Number of spherical basis functions:                                   31
       Norm type:                                                              2

       Normalised Cartesian orbitals:

                        Set   Shell   Orbital            Exponent    Coefficient

                          1       1    1s         

                          2       1    1s                2.576490       0.544758

                          3       1    1s                0.576963       0.471815

                          4       1    1s                0.229728       0.236494

                          5       1    1s                0.095164       0.122114

                          6       1    1px               2.378083       1.270923
                                                         0.814332       0.802572
                          6       1    1py               2.378083       1.270923
                                                         0.814332       0.802572
                          6       1    1pz               2.378083       1.270923
                                                         0.814332       0.802572

                          7       1    1px               0.288875       0.301876
                          7       1    1py               0.288875       0.301876
                          7       1    1pz               0.288875       0.301876

                          8       1    1px               0.100568       0.080727
                          8       1    1py               0.100568       0.080727
                          8       1    1pz               0.100568       0.080727

                          9       1    1dx2              1.097000       1.935401
                          9       1    1dxy              1.097000       3.352214
                          9       1    1dxz              1.097000       3.352214
                          9       1    1dy2              1.097000       1.935401
                          9       1    1dyz              1.097000       3.352214
                          9       1    1dz2              1.097000       1.935401

                         10       1    1dx2              0.318000       0.221644
                         10       1    1dxy              0.318000       0.383899
                         10       1    1dxz              0.318000       0.383899
                         10       1    1dy2              0.318000       0.221644
                         10       1    1dyz              0.318000       0.383899
                         10       1    1dz2              0.318000       0.221644

                         11       1    1fx3              0.761000       0.796288
                         11       1    1fx2y             0.761000       1.780553
                         11       1    1fx2z             0.761000       1.780553
                         11       1    1fxy2             0.761000       1.780553
                         11       1    1fxyz             0.761000       3.084008
                         11       1    1fxz2             0.761000       1.780553
                         11       1    1fy3              0.761000       0.796288
                         11       1    1fy2z             0.761000       1.780553
                         11       1    1fyz2             0.761000       1.780553
                         11       1    1fz3              0.761000       0.796288

     AE Potential information for                                            ALL

       Description:                                       All-electron potential
                                          Krack, Parrinello, PCCP 2, 2105 (2000)

       Gaussian exponent of the core charge distribution:               4.109048
       Electronic configuration (s p d ...):                           4   2   0

  2. Atomic kind: S                                     Number of atoms:       2

     Orbital Basis Set                                                def2-TZVPP

       Number of orbital shell sets:                                          14
       Number of orbital shells:                                              14
       Number of primitive Cartesian functions:                               27
       Number of Cartesian basis functions:                                   48
       Number of spherical basis functions:                                   42
       Norm type:                                                              2

       Normalised Cartesian orbitals:

                        Set   Shell   Orbital            Exponent    Coefficient

                          1       1    1s            60700.928104       1.443686
                                                      9102.610685       2.690342
                                                      2071.416601       4.557613
                                                       586.024768       6.918117
                                                       190.553950       8.681024
                                                        67.630384       7.517583
                                                        25.127307       2.790901

                          2       1    1s              112.574630       2.474372
                                                        34.795554       4.430516
                                                         6.511556      -3.510721

                          3       1    1s                3.239903       1.161718
                                                         1.547716       0.343256

                          4       1    1s                0.405410       0.362102

                          5       1    1s                0.145507       0.167908

                          6       1    1px             564.367160      13.679018
                                                       133.426244      17.895267
                                                        42.468271      19.562932
                                                        15.616528      16.003695
                                                         6.109399       8.381967
                          6       1    1py             564.367160      13.679018
                                                       133.426244      17.895267
                                                        42.468271      19.562932
                                                        15.616528      16.003695
                                                         6.109399       8.381967
                          6       1    1pz             564.367160      13.679018
                                                       133.426244      17.895267
                                                        42.468271      19.562932
                                                        15.616528      16.003695
                                                         6.109399       8.381967

                          7       1    1px               2.440416       4.347804
                          7       1    1py               2.440416       4.347804
                          7       1    1pz               2.440416       4.347804

                          8       1    1px               0.838822       1.144267
                          8       1    1py               0.838822       1.144267
                          8       1    1pz               0.838822       1.144267

                          9       1    1px               0.312887       0.333561
                          9       1    1py               0.312887       0.333561
                          9       1    1pz               0.312887       0.333561

                         10       1    1px               0.107701       0.087946
                         10       1    1py               0.107701       0.087946
                         10       1    1pz               0.107701       0.087946

                         11       1    1dx2              3.756000      16.679354
                         11       1    1dxy              3.756000      28.889489
                         11       1    1dxz              3.756000      28.889489
                         11       1    1dy2              3.756000      16.679354
                         11       1    1dyz              3.756000      28.889489
                         11       1    1dz2              3.756000      16.679354

                         12       1    1dx2              0.812000       1.143227
                         12       1    1dxy              0.812000       1.980127
                         12       1    1dxz              0.812000       1.980127
                         12       1    1dy2              0.812000       1.143227
                         12       1    1dyz              0.812000       1.980127
                         12       1    1dz2              0.812000       1.143227

                         13       1    1dx2              0.273000       0.169705
                         13       1    1dxy              0.273000       0.293937
                         13       1    1dxz              0.273000       0.293937
                         13       1    1dy2              0.273000       0.169705
                         13       1    1dyz              0.273000       0.293937
                         13       1    1dz2              0.273000       0.169705

                         14       1    1fx3              0.557000       0.394574
                         14       1    1fx2y             0.557000       0.882295
                         14       1    1fx2z             0.557000       0.882295
                         14       1    1fxy2             0.557000       0.882295
                         14       1    1fxyz             0.557000       1.528179
                         14       1    1fxz2             0.557000       0.882295
                         14       1    1fy3              0.557000       0.394574
                         14       1    1fy2z             0.557000       0.882295
                         14       1    1fyz2             0.557000       0.882295
                         14       1    1fz3              0.557000       0.394574

       Atomic covalent radius [Angstrom]:                                  1.020

       Atomic van der Waals radius [Angstrom]:                             1.800

     The atoms of this atomic kind are PAW atoms (GAPW):
       Hard Gaussian function radius:                                      1.512
       Rho0 radius:                                                        1.512
       Maximum GTO radius used for PAW projector construction:            24.566

     GAPW Soft Basis Set                                         def2-TZVPP_soft

       Number of orbital shell sets:                                          14
       Number of orbital shells:                                              14
       Number of primitive Cartesian functions:                               12
       Number of Cartesian basis functions:                                   48
       Number of spherical basis functions:                                   42
       Norm type:                                                              2

       Normalised Cartesian orbitals:

                        Set   Shell   Orbital            Exponent    Coefficient

                          1       1    1s         

                          2       1    1s         

                          3       1    1s                3.239903       1.161718
                                                         1.547716       0.343256

                          4       1    1s                0.405410       0.362102

                          5       1    1s                0.145507       0.167908

                          6       1    1px        
                          6       1    1py        
                          6       1    1pz        

                          7       1    1px               2.440416       4.347804
                          7       1    1py               2.440416       4.347804
                          7       1    1pz               2.440416       4.347804

                          8       1    1px               0.838822       1.144267
                          8       1    1py               0.838822       1.144267
                          8       1    1pz               0.838822       1.144267

                          9       1    1px               0.312887       0.333561
                          9       1    1py               0.312887       0.333561
                          9       1    1pz               0.312887       0.333561

                         10       1    1px               0.107701       0.087946
                         10       1    1py               0.107701       0.087946
                         10       1    1pz               0.107701       0.087946

                         11       1    1dx2              3.756000      16.679354
                         11       1    1dxy              3.756000      28.889489
                         11       1    1dxz              3.756000      28.889489
                         11       1    1dy2              3.756000      16.679354
                         11       1    1dyz              3.756000      28.889489
                         11       1    1dz2              3.756000      16.679354

                         12       1    1dx2              0.812000       1.143227
                         12       1    1dxy              0.812000       1.980127
                         12       1    1dxz              0.812000       1.980127
                         12       1    1dy2              0.812000       1.143227
                         12       1    1dyz              0.812000       1.980127
                         12       1    1dz2              0.812000       1.143227

                         13       1    1dx2              0.273000       0.169705
                         13       1    1dxy              0.273000       0.293937
                         13       1    1dxz              0.273000       0.293937
                         13       1    1dy2              0.273000       0.169705
                         13       1    1dyz              0.273000       0.293937
                         13       1    1dz2              0.273000       0.169705

                         14       1    1fx3              0.557000       0.394574
                         14       1    1fx2y             0.557000       0.882295
                         14       1    1fx2z             0.557000       0.882295
                         14       1    1fxy2             0.557000       0.882295
                         14       1    1fxyz             0.557000       1.528179
                         14       1    1fxz2             0.557000       0.882295
                         14       1    1fy3              0.557000       0.394574
                         14       1    1fy2z             0.557000       0.882295
                         14       1    1fyz2             0.557000       0.882295
                         14       1    1fz3              0.557000       0.394574

     AE Potential information for                                            ALL

       Description:                                       All-electron potential
                                          Krack, Parrinello, PCCP 2, 2105 (2000)

       Gaussian exponent of the core charge distribution:               2.834467
       Electronic configuration (s p d ...):                           6  10   0

  3. Atomic kind: H                                     Number of atoms:       6

     Orbital Basis Set                                        Ahlrichs-def2-TZVP

       Number of orbital shell sets:                                           4
       Number of orbital shells:                                               4
       Number of primitive Cartesian functions:                                6
       Number of Cartesian basis functions:                                    6
       Number of spherical basis functions:                                    6
       Norm type:                                                              2

       Normalised Cartesian orbitals:

                        Set   Shell   Orbital            Exponent    Coefficient

                          1       1    1s               34.061341       0.255630
                                                         5.123575       0.461360
                                                         1.164663       0.681121

                          2       1    1s                0.327230       0.308355

                          3       1    1s                0.103072       0.129648

                          4       1    1px               0.800000       1.078456
                          4       1    1py               0.800000       1.078456
                          4       1    1pz               0.800000       1.078456

       Atomic covalent radius [Angstrom]:                                  0.320

       Atomic van der Waals radius [Angstrom]:                             1.090

     The atoms of this atomic kind are PAW atoms (GAPW):
       Hard Gaussian function radius:                                      1.200
       Rho0 radius:                                                        1.200
       Maximum GTO radius used for PAW projector construction:            24.566

     GAPW Soft Basis Set                                 Ahlrichs-def2-TZVP_soft

       Number of orbital shell sets:                                           4
       Number of orbital shells:                                               4
       Number of primitive Cartesian functions:                                5
       Number of Cartesian basis functions:                                    6
       Number of spherical basis functions:                                    6
       Norm type:                                                              2

       Normalised Cartesian orbitals:

                        Set   Shell   Orbital            Exponent    Coefficient

                          1       1    1s                5.123575       0.461360
                                                         1.164663       0.681121

                          2       1    1s                0.327230       0.308355

                          3       1    1s                0.103072       0.129648

                          4       1    1px               0.800000       1.078456
                          4       1    1py               0.800000       1.078456
                          4       1    1pz               0.800000       1.078456

     AE Potential information for                                            ALL

       Description:                                       All-electron potential
                                          Krack, Parrinello, PCCP 2, 2105 (2000)

       Gaussian exponent of the core charge distribution:              12.500000
       Electronic configuration (s p d ...):                           1   0   0


 MOLECULE KIND INFORMATION


 All atoms are their own molecule, skipping detailed information


 TOTAL NUMBERS AND MAXIMUM NUMBERS

  Total number of            - Atomic kinds:                                   3
                             - Atoms:                                         16
                             - Shell sets:                                   140
                             - Shells:                                       140
                             - Primitive Cartesian functions:                250
                             - Cartesian basis functions:                    420
                             - Spherical basis functions:                    368

  Maximum angular momentum of the orbital basis functions:                     3


 MODULE QUICKSTEP: ATOMIC COORDINATES IN ANGSTROM

   Atom Kind Element         X             Y             Z       Z(eff)     Mass
      1    1 C     6     -0.590375      0.233976     -4.177121   6.0000  12.0107
      2    1 C     6     -0.589627     -0.831534     -3.337973   6.0000  12.0107
      3    1 C     6     -0.581836     -0.383799     -1.961066   6.0000  12.0107
      4    1 C     6     -0.575365      0.977588     -1.746574   6.0000  12.0107
      5    2 S    16     -0.576746      1.733482     -3.395683  16.0000  32.0650
      6    1 C     6     -0.576936      1.772830     -0.456669   6.0000  12.0107
      7    1 C     6     -0.600136      3.146921     -0.512490   6.0000  12.0107
      8    1 C     6     -0.602657      3.875139      0.710296   6.0000  12.0107
      9    1 C     6     -0.581094      2.998013      1.736845   6.0000  12.0107
     10    2 S    16     -0.555856      1.342825      1.434922  16.0000  32.0650
     11    3 H     1     -0.596444      0.224783     -5.286598   1.0000   1.0079
     12    3 H     1     -0.598066     -1.879734     -3.594334   1.0000   1.0079
     13    3 H     1     -0.583043     -1.102509     -1.141272   1.0000   1.0079
     14    3 H     1     -0.615971      3.715833     -1.445360   1.0000   1.0079
     15    3 H     1     -0.624118      4.944085      0.823448   1.0000   1.0079
     16    3 H     1     -0.581677      3.223670      2.822326   1.0000   1.0079



 SCF PARAMETERS         Density guess:                                   RESTART
                        --------------------------------------------------------
                        max_scf:                                              20
                        max_scf_history:                                       0
                        max_diis:                                              4
                        --------------------------------------------------------
                        eps_scf:                                        1.00E-07
                        eps_scf_history:                                0.00E+00
                        eps_diis:                                       1.00E-01
                        eps_eigval:                                     1.00E-05
                        --------------------------------------------------------
                        level_shift [a.u.]:                             0.000000
                        --------------------------------------------------------
                        Outer loop SCF in use 
                        No variables optimised in outer loop
                        eps_scf                                         1.00E-07
                        max_scf                                              200
                        No outer loop optimization
                        step_size                                       5.00E-01

 PW_GRID| Information for grid number                                          1
 PW_GRID| Grid distributed over                                    64 processors
 PW_GRID| Real space group dimensions                                    64    1
 PW_GRID| the grid is blocked:                                                NO
 PW_GRID| Cutoff [a.u.]                                                   1200.0
 PW_GRID| spherical cutoff:                                                   NO
 PW_GRID|   Bounds   1           -150     149                Points:         300
 PW_GRID|   Bounds   2           -150     149                Points:         300
 PW_GRID|   Bounds   3           -150     149                Points:         300
 PW_GRID| Volume element (a.u.^3)  0.2499E-03     Volume (a.u.^3)      6748.3346
 PW_GRID| Grid span                                                    FULLSPACE
 PW_GRID|   Distribution                         Average         Max         Min
 PW_GRID|   G-Vectors                           421875.0      422100      421800
 PW_GRID|   G-Rays                                1406.2        1407        1406
 PW_GRID|   Real Space Points                   421875.0      450000      360000

 PW_GRID| Information for grid number                                          2
 PW_GRID| Number of the reference grid                                         1
 PW_GRID| Grid distributed over                                    64 processors
 PW_GRID| Real space group dimensions                                    64    1
 PW_GRID| the grid is blocked:                                                NO
 PW_GRID| Cutoff [a.u.]                                                    600.0
 PW_GRID| spherical cutoff:                                                   NO
 PW_GRID|   Bounds   1           -108     107                Points:         216
 PW_GRID|   Bounds   2           -108     107                Points:         216
 PW_GRID|   Bounds   3           -108     107                Points:         216
 PW_GRID| Volume element (a.u.^3)  0.6696E-03     Volume (a.u.^3)      6748.3346
 PW_GRID| Grid span                                                    FULLSPACE
 PW_GRID|   Distribution                         Average         Max         Min
 PW_GRID|   G-Vectors                           157464.0      157680      157248
 PW_GRID|   G-Rays                                 729.0         730         728
 PW_GRID|   Real Space Points                   157464.0      186624      139968

 PW_GRID| Information for grid number                                          3
 PW_GRID| Number of the reference grid                                         2
 PW_GRID| Grid distributed over                                    64 processors
 PW_GRID| Real space group dimensions                                    64    1
 PW_GRID| the grid is blocked:                                                NO
 PW_GRID| Cutoff [a.u.]                                                    200.0
 PW_GRID| spherical cutoff:                                                   NO
 PW_GRID|   Bounds   1            -62      62                Points:         125
 PW_GRID|   Bounds   2            -62      62                Points:         125
 PW_GRID|   Bounds   3            -62      62                Points:         125
 PW_GRID| Volume element (a.u.^3)  0.3455E-02     Volume (a.u.^3)      6748.3346
 PW_GRID| Grid span                                                    FULLSPACE
 PW_GRID|   Distribution                         Average         Max         Min
 PW_GRID|   G-Vectors                            30517.6       30625       30375
 PW_GRID|   G-Rays                                 244.1         245         243
 PW_GRID|   Real Space Points                    30517.6       31250       15625

 PW_GRID| Information for grid number                                          4
 PW_GRID| Number of the reference grid                                         2
 PW_GRID| Grid distributed over                                    64 processors
 PW_GRID| Real space group dimensions                                    64    1
 PW_GRID| the grid is blocked:                                                NO
 PW_GRID| Cutoff [a.u.]                                                     66.7
 PW_GRID| spherical cutoff:                                                   NO
 PW_GRID|   Bounds   1            -36      35                Points:          72
 PW_GRID|   Bounds   2            -36      35                Points:          72
 PW_GRID|   Bounds   3            -36      35                Points:          72
 PW_GRID| Volume element (a.u.^3)  0.1808E-01     Volume (a.u.^3)      6748.3346
 PW_GRID| Grid span                                                    FULLSPACE
 PW_GRID|   Distribution                         Average         Max         Min
 PW_GRID|   G-Vectors                             5832.0        5904        5760
 PW_GRID|   G-Rays                                  81.0          82          80
 PW_GRID|   Real Space Points                     5832.0       10368        5184

 PW_GRID| Information for grid number                                          5
 PW_GRID| Number of the reference grid                                         2
 PW_GRID| Grid distributed over                                    64 processors
 PW_GRID| Real space group dimensions                                     8    8
 PW_GRID| the grid is blocked:                                                NO
 PW_GRID| Cutoff [a.u.]                                                     22.2
 PW_GRID| spherical cutoff:                                                   NO
 PW_GRID|   Bounds   1            -22      22                Points:          45
 PW_GRID|   Bounds   2            -22      22                Points:          45
 PW_GRID|   Bounds   3            -22      22                Points:          45
 PW_GRID| Volume element (a.u.^3)  0.7406E-01     Volume (a.u.^3)      6748.3346
 PW_GRID| Grid span                                                    FULLSPACE
 PW_GRID|   Distribution                         Average         Max         Min
 PW_GRID|   G-Vectors                             1423.8        1485        1395
 PW_GRID|   G-Rays                                  31.6          33          31
 PW_GRID|   Real Space Points                     1423.8        1620        1125

 PW_GRID| Information for grid number                                          6
 PW_GRID| Number of the reference grid                                         2
 PW_GRID| Grid distributed over                                    64 processors
 PW_GRID| Real space group dimensions                                     8    8
 PW_GRID| the grid is blocked:                                                NO
 PW_GRID| Cutoff [a.u.]                                                      7.4
 PW_GRID| spherical cutoff:                                                   NO
 PW_GRID|   Bounds   1            -12      11                Points:          24
 PW_GRID|   Bounds   2            -12      11                Points:          24
 PW_GRID|   Bounds   3            -12      11                Points:          24
 PW_GRID| Volume element (a.u.^3)  0.4882         Volume (a.u.^3)      6748.3346
 PW_GRID| Grid span                                                    FULLSPACE
 PW_GRID|   Distribution                         Average         Max         Min
 PW_GRID|   G-Vectors                              216.0         240         192
 PW_GRID|   G-Rays                                   9.0          10           8
 PW_GRID|   Real Space Points                      216.0         216         216

 POISSON| Solver                                          Martyna-Tuckerman (MT)
 POISSON| MT| Alpha                                                        7.000
 POISSON| MT| Relative cutoff                                                2.0
 POISSON| Periodicity                                                       NONE

 RS_GRID| Information for grid number                                          2
 RS_GRID|   Bounds   1           -108     107                Points:         216
 RS_GRID|   Bounds   2           -108     107                Points:         216
 RS_GRID|   Bounds   3           -108     107                Points:         216
 RS_GRID| Real space distribution over                                  8 groups
 RS_GRID| Real space distribution along direction                              2
 RS_GRID| Border size                                                         44
 RS_GRID| Real space distribution over                                  8 groups
 RS_GRID| Real space distribution along direction                              3
 RS_GRID| Border size                                                         44
 RS_GRID|   Distribution                         Average         Max         Min
 RS_GRID|   Planes                                 115.0         115         115
 RS_GRID|   Distribution                         Average         Max         Min
 RS_GRID|   Planes                                 115.0         115         115

 RS_GRID| Information for grid number                                          3
 RS_GRID|   Bounds   1            -62      62                Points:         125
 RS_GRID|   Bounds   2            -62      62                Points:         125
 RS_GRID|   Bounds   3            -62      62                Points:         125
 RS_GRID| Real space distribution over                                  8 groups
 RS_GRID| Real space distribution along direction                              2
 RS_GRID| Border size                                                         35
 RS_GRID| Real space distribution over                                  8 groups
 RS_GRID| Real space distribution along direction                              3
 RS_GRID| Border size                                                         35
 RS_GRID|   Distribution                         Average         Max         Min
 RS_GRID|   Planes                                  85.6          86          85
 RS_GRID|   Distribution                         Average         Max         Min
 RS_GRID|   Planes                                  85.6          86          85

 RS_GRID| Information for grid number                                          4
 RS_GRID|   Bounds   1            -36      35                Points:          72
 RS_GRID|   Bounds   2            -36      35                Points:          72
 RS_GRID|   Bounds   3            -36      35                Points:          72
 RS_GRID| Real space fully replicated
 RS_GRID| Group size                                                           1

 RS_GRID| Information for grid number                                          5
 RS_GRID|   Bounds   1            -22      22                Points:          45
 RS_GRID|   Bounds   2            -22      22                Points:          45
 RS_GRID|   Bounds   3            -22      22                Points:          45
 RS_GRID| Real space fully replicated
 RS_GRID| Group size                                                           1

 RS_GRID| Information for grid number                                          6
 RS_GRID|   Bounds   1            -12      11                Points:          24
 RS_GRID|   Bounds   2            -12      11                Points:          24
 RS_GRID|   Bounds   3            -12      11                Points:          24
 RS_GRID| Real space fully replicated
 RS_GRID| Group size                                                           1

  HFX_INFO| Replica ID:                                                        1
  HFX_INFO| FRACTION:                                               0.2500000000
  HFX_INFO| Interaction Potential:                                       COULOMB
  HFX_INFO| EPS_SCHWARZ:                                                 1.0E-10
  HFX_INFO| EPS_SCHWARZ_FORCES                                           1.0E-06
  HFX_INFO| EPS_STORAGE_SCALING:                                         1.0E+00
  HFX_INFO| NBINS:                                                            64
  HFX_INFO| BLOCK_SIZE:                                                        1
  HFX_INFO| Number of periodic shells considered:                           NONE
  HFX_INFO| Number of periodic cells considered:                            NONE


 Number of electrons:                                                         86
 Number of occupied orbitals:                                                 43
 Number of molecular orbitals:                                                43

 Number of orbital functions:                                                368
 Number of independent orbital functions:                                    368

 Extrapolation method: initial_guess


 SCF WAVEFUNCTION OPTIMIZATION

  ----------------------------------- OT ---------------------------------------
  Minimizer      : DIIS                : direct inversion
                                         in the iterative subspace
                                         using   7 DIIS vectors
                                         safer DIIS on
  Preconditioner : FULL_ALL            : diagonalization, state selective
  Precond_solver : DEFAULT
  stepsize       :    0.15000000                  energy_gap     :    0.08000000
  eps_taylor     :   0.10000E-15                  max_taylor     :             4
  ----------------------------------- OT ---------------------------------------

  Step     Update method      Time    Convergence         Total energy    Change
  ------------------------------------------------------------------------------

  HFX_MEM_INFO| Est. max. program size before HFX [MiB]:                     678
  HFX_MEM_INFO| Number of cart. primitive ERI's calculated:           8802345251
  HFX_MEM_INFO| Number of sph. ERI's calculated:                      1954834705
  HFX_MEM_INFO| Number of sph. ERI's stored in-core:                  1954834705
  HFX_MEM_INFO| Number of sph. ERI's stored on disk:                           0
  HFX_MEM_INFO| Number of sph. ERI's calculated on the fly:                    0
  HFX_MEM_INFO| Total memory consumption ERI's RAM [MiB]:                   5086
  HFX_MEM_INFO| Whereof max-vals [MiB]:                                       17
  HFX_MEM_INFO| Total compression factor ERI's RAM:                         2.93
  HFX_MEM_INFO| Total memory consumption ERI's disk [MiB]:                     0
  HFX_MEM_INFO| Total compression factor ERI's disk:                        0.00
  HFX_MEM_INFO| Size of density/Fock matrix [MiB]:                             0
  HFX_MEM_INFO| Size of buffers [MiB]:                                         1
  HFX_MEM_INFO| Est. max. program size after HFX  [MiB]:                    1096

     1 OT DIIS     0.15E+00   14.8     0.00000002     -1104.4744914110 -1.10E+03

  *** SCF run converged in     1 steps ***


  Electronic density on regular grids:        -55.2277144452       30.7722855548
  Core density on regular grids:               86.0000000000       -0.0000000000
  Hard and soft densities (Lebedev):         -110.6820966121      -79.9098220763
  Total Rho_soft + Rho1_hard - Rho1_soft      -85.9999889810
  Total charge density (r-space):               0.0000110190
  Total Rho_soft + Rho0_soft (g-space):         0.0000111293

  Overlap energy of the core charge distribution:               0.00001647978073
  Self energy of the core charge distribution:               -585.25180096330610
  Core Hamiltonian energy:                                   -512.70988715849865
  Hartree energy:                                             179.00142851295365
  Exchange-correlation energy:                                -19.07826683716568
  Hartree-Fock Exchange energy:                               -23.37597993730761

  GAPW| Exc from hard and soft atomic rho1:                   -53.83561221357819
  GAPW| local Eh = 1 center integrals:                        -89.22438929391029

  Total energy:                                             -1104.47449141103220

  outer SCF iter =    1 RMS gradient =   0.19E-07 energy =      -1104.4744914110
  outer SCF loop converged in   1 iterations or    1 steps


 !-----------------------------------------------------------------------------!
                     Mulliken Population Analysis

 #  Atom  Element  Kind  Atomic population                           Net charge
       1     C        1          6.150662                             -0.150662
       2     C        1          6.132095                             -0.132095
       3     C        1          6.273617                             -0.273617
       4     C        1          5.923360                              0.076640
       5     S        2         15.928164                              0.071836
       6     C        1          6.127527                             -0.127527
       7     C        1          6.106215                             -0.106215
       8     C        1          6.267290                             -0.267290
       9     C        1          6.096799                             -0.096799
      10     S        2         15.939185                              0.060815
      11     H        3          0.862256                              0.137744
      12     H        3          0.837563                              0.162437
      13     H        3          0.852817                              0.147183
      14     H        3          0.843977                              0.156023
      15     H        3          0.818553                              0.181447
      16     H        3          0.839918                              0.160082
 # Total charge                             86.000000                  0.000000

 !-----------------------------------------------------------------------------!

 !-----------------------------------------------------------------------------!
                           Hirshfeld Charges

  #Atom  Element  Kind  Ref Charge     Population                    Net charge
      1       C      1       6.000          6.153                        -0.153
      2       C      1       6.000          6.448                        -0.448
      3       C      1       6.000          6.496                        -0.496
      4       C      1       6.000          5.773                         0.227
      5       S      2      16.000         16.695                        -0.695
      6       C      1       6.000          5.806                         0.194
      7       C      1       6.000          6.420                        -0.420
      8       C      1       6.000          6.479                        -0.479
      9       C      1       6.000          6.110                        -0.110
     10       S      2      16.000         16.627                        -0.627
     11       H      3       1.000          0.492                         0.508
     12       H      3       1.000          0.494                         0.506
     13       H      3       1.000          0.501                         0.499
     14       H      3       1.000          0.501                         0.499
     15       H      3       1.000          0.499                         0.501
     16       H      3       1.000          0.499                         0.501

  Total Charge                                                            0.007
 !-----------------------------------------------------------------------------!

 *******************************************************************************
 **                                                                           **
 **         ######## #######   #######   ######## #######  ########           **
 **            ##    ##     ## ##     ## ##       ##   ##     ##              **
 **            ##    ##     ## ##     ## ######   #######     ##              **
 **            ##    ##     ## ##     ## ##       ##          ##              **
 **            ##    #######   #######   ##       ##          ##              **
 **                                                                           **
 *******************************************************************************
 KERNEL|                                                                    FULL
 FUNCTIONAL| PBE:
 FUNCTIONAL| J.P.Perdew, K.Burke, M.Ernzerhof, Phys. Rev. Letter, vol. 77, n 18,
 FUNCTIONAL|  pp. 3865-3868, (1996)sx=0.750sc=1.000{spin unpolarized}           
 KERNEL|                                                          Exact Exchange
 KERNEL| Spin symmetry of excitations                                    Triplet
 TDDFPT| Number of states calculated                                         100
 TDDFPT| Number of Davidson iterations                                        20
 TDDFPT| Davidson iteration convergence                                0.100E-07
 TDDFPT| Max. number of Krylov space vectors                                  60
 TDDFPT| Molecular Orbitals:        Spin       AOs       Occ      Virt     Total
 TDDFPT|                               1       368        43       325       368

 *******************************************************************************
 **                                                                           **
 **                            ####### ####### #######                        **
 **                        #   ##      ##   ## ##                             **
 **                       ###  ######  ##   ## ##                             **
 **                        #       ##  ##   ## ##                             **
 **                            ######  ####### #######                        **
 **                 Based on the xas module from Augustin Bussy               **
 *******************************************************************************
 
 -------------------------------------------------------------------------------
 -                      TDDFPT TRIPLET ENERGIES                                 -
 -------------------------------------------------------------------------------
 
 -------------------------------------------------------------------------------
 -                            TDDFPT Initial Guess                             -
 -------------------------------------------------------------------------------
          State         Occupied      ->      Virtual          Excitation
          number         orbital              orbital          energy (eV)
 -------------------------------------------------------------------------------
             1               43                   44              4.57899
             2               43                   45              5.20162
             3               42                   44              5.65288
             4               41                   44              5.97100
             5               43                   46              6.20138
             6               42                   45              6.27551
             7               41                   45              6.59363
             8               43                   47              6.62140
             9               40                   44              6.73048
            10               43                   48              7.27253
            11               42                   46              7.27527
            12               40                   45              7.35311
            13               43                   49              7.45720
            14               41                   46              7.59339
            15               43                   50              7.67794
            16               42                   47              7.69529
            17               43                   51              7.76609
            18               39                   44              7.91918
            19               41                   47              8.01341
            20               43                   52              8.02264
            21               42                   48              8.34642
            22               40                   46              8.35286
            23               43                   53              8.42414
            24               42                   49              8.53109
            25               39                   45              8.54181
            26               38                   44              8.59986
            27               41                   48              8.66454
            28               43                   54              8.71813
            29               42                   50              8.75183
            30               40                   47              8.77288
            31               42                   51              8.83998
            32               41                   49              8.84921
            33               37                   44              8.95289
            34               43                   55              9.06550
            35               41                   50              9.06995
            36               42                   52              9.09653
            37               36                   44              9.10201
            38               41                   51              9.15810
            39               38                   45              9.22249
            40               41                   52              9.41465
            41               40                   48              9.42401
            42               43                   56              9.46760
            43               42                   53              9.49802
            44               39                   46              9.54157
            45               37                   45              9.57552
            46               40                   49              9.60868
            47               35                   44              9.62764
            48               34                   44              9.70402
            49               36                   45              9.72464
            50               42                   54              9.79202
            51               41                   53              9.81614
            52               40                   50              9.82942
            53               43                   57              9.83372
            54               33                   44              9.84589
            55               40                   51              9.91757
            56               39                   47              9.96159
            57               43                   58              9.98119
            58               32                   44              9.98609
            59               41                   54             10.11014
            60               42                   55             10.13939
            61               31                   44             10.14480
            62               40                   52             10.17412
            63               38                   46             10.22225
            64               35                   45             10.25027
            65               34                   45             10.32665
            66               43                   59             10.36355
            67               41                   55             10.45751
            68               33                   45             10.46852
            69               42                   56             10.54148
            70               37                   46             10.57528
            71               40                   53             10.57562
            72               32                   45             10.60872
            73               39                   48             10.61272
            74               38                   47             10.64226
            75               36                   46             10.72440
            76               43                   60             10.75360
            77               31                   45             10.76743
            78               39                   49             10.79738
            79               41                   56             10.85960
            80               40                   54             10.86961
            81               42                   57             10.90761
            82               37                   47             10.99530
            83               39                   50             11.01813
            84               42                   58             11.05508
            85               39                   51             11.10628
            86               36                   47             11.14441
            87               40                   55             11.21698
            88               41                   57             11.22573
            89               35                   46             11.25003
            90               38                   48             11.29339
            91               34                   46             11.32641
            92               39                   52             11.36283
            93               41                   58             11.37320
            94               43                   61             11.41245
            95               42                   59             11.43743
            96               33                   46             11.46828
            97               38                   49             11.47806
            98               43                   62             11.59480
            99               32                   46             11.60848
           100               40                   56             11.61908

      Number of active states:                                      13975
 -------------------------------------------------------------------------------
 
 -------------------------------------------------------------------------------
 -                      TDDFPT WAVEFUNCTION OPTIMIZATION                       -
 -------------------------------------------------------------------------------

          Step            Time         Convergence           Conv. states
 -------------------------------------------------------------------------------

    State    Exc. energy (eV)      Convergence (eV)
        1       2.7788809            -1.8001E+00
        2       3.6275561            -1.5741E+00
        3       3.8995639            -1.7533E+00
        4       4.1327532            -1.8383E+00
        5       4.3403585            -1.8610E+00
        6       4.5715027            -1.7040E+00
        7       4.9776030            -1.6160E+00
        8       5.2132998            -1.4081E+00
        9       5.2245155            -1.5060E+00
       10       5.4333775            -1.8392E+00
       11       5.8066112            -1.4687E+00
       12       5.8726638            -1.4804E+00
       13       5.8938858            -1.5633E+00
       14       6.0287826            -1.5646E+00
       15       6.0887087            -1.5892E+00
       16       6.1387957            -1.5565E+00
       17       6.3865250            -1.3796E+00
       18       6.4728508            -1.4463E+00
       19       6.6466145            -1.3668E+00
       20       6.7566077            -1.2660E+00
       21       6.7617427            -1.5847E+00
       22       6.8212290            -1.5316E+00
       23       6.9243747            -1.4998E+00
       24       6.9659999            -1.5651E+00
       25       7.1016118            -1.4402E+00
       26       7.1633499            -1.4365E+00
       27       7.1931670            -1.4714E+00
       28       7.2749115            -1.4432E+00
       29       7.3280502            -1.4238E+00
       30       7.3996414            -1.3732E+00
       31       7.4833941            -1.3566E+00
       32       7.5602735            -1.2889E+00
       33       7.6557459            -1.2971E+00
       34       7.6708697            -1.3946E+00
       35       7.6983138            -1.3716E+00
       36       7.7794432            -1.3171E+00
       37       7.8052692            -1.2967E+00
       38       7.8548198            -1.3033E+00
       39       7.9443636            -1.2781E+00
       40       7.9885043            -1.4261E+00
       41       8.0024776            -1.4215E+00
       42       8.0606551            -1.4069E+00
       43       8.0860186            -1.4120E+00
       44       8.1344778            -1.4071E+00
       45       8.2193355            -1.3562E+00
       46       8.2617472            -1.3469E+00
       47       8.2724599            -1.3552E+00
       48       8.3007123            -1.4033E+00
       49       8.3088769            -1.4158E+00
       50       8.3499464            -1.4421E+00
       51       8.4892414            -1.3269E+00
       52       8.4925256            -1.3369E+00
       53       8.5250560            -1.3087E+00
       54       8.5704781            -1.2754E+00
       55       8.5769631            -1.3406E+00
       56       8.6663648            -1.2952E+00
       57       8.6935735            -1.2876E+00
       58       8.7092594            -1.2768E+00
       59       8.7869909            -1.3231E+00
       60       8.8602927            -1.2791E+00
       61       8.9526238            -1.1922E+00
       62       8.9604988            -1.2136E+00
       63       8.9887827            -1.2335E+00
       64       9.0035447            -1.2467E+00
       65       9.0317897            -1.2949E+00
       66       9.0609143            -1.3026E+00
       67       9.1419790            -1.3155E+00
       68       9.2440111            -1.2245E+00
       69       9.2665698            -1.2749E+00
       70       9.2861961            -1.2891E+00
       71       9.3165280            -1.2591E+00
       72       9.4248695            -1.1839E+00
       73       9.4538421            -1.1589E+00
       74       9.4862752            -1.1560E+00
       75       9.5049060            -1.2195E+00
       76       9.5200231            -1.2336E+00
       77       9.5863082            -1.1811E+00
       78       9.6250219            -1.1724E+00
       79       9.6916425            -1.1680E+00
       80       9.7654085            -1.1042E+00
       81       9.7760900            -1.1315E+00
       82       9.8616914            -1.1336E+00
       83       9.8985325            -1.1196E+00
       84       9.9418052            -1.1133E+00
       85       9.9710147            -1.1353E+00
       86       9.9917627            -1.1526E+00
       87      10.0066340            -1.2103E+00
       88      10.0233537            -1.2024E+00
       89      10.0696264            -1.1804E+00
       90      10.1002061            -1.1932E+00
       91      10.1767730            -1.1496E+00
       92      10.1838321            -1.1790E+00
       93      10.2053345            -1.1679E+00
       94      10.2774689            -1.1350E+00
       95      10.2991457            -1.1383E+00
       96      10.3277554            -1.1405E+00
       97      10.3810296            -1.0970E+00
       98      10.4408311            -1.1540E+00
       99      10.4766296            -1.1318E+00
      100      10.6186187            -1.0005E+00
 
             1           157.7          6.8391E-02                      0
 ------------------------- Restart Davidson iterations -------------------------

    State    Exc. energy (eV)      Convergence (eV)
        1       2.7788809            -3.7763E-16
        2       3.6275561             3.7008E-14
        3       3.8995639             1.5105E-15
        4       4.1327532             6.0421E-15
        5       4.3403585            -4.5316E-15
[...]
 flops    42 x    11 x    42            407406384       0.0%    100.0%      0.0%
 flops    42 x    32 x     6            512676864       0.0%    100.0%      0.0%
 flops     6 x    32 x    42            512805888       0.0%    100.0%      0.0%
 flops    31 x    11 x     6            514413504       0.0%    100.0%      0.0%
 flops     6 x    11 x    31            514413504       0.0%    100.0%      0.0%
 flops    31 x    42 x    32            534632448       0.0%    100.0%      0.0%
 flops    42 x    31 x    32            534632448       0.0%    100.0%      0.0%
 flops    31 x    31 x    11            610411824       0.0%    100.0%      0.0%
 flops    42 x    43 x    42           1031587200       0.0%    100.0%      0.0%
 flops    31 x    43 x     6           1074931200       0.0%    100.0%      0.0%
 flops     6 x    43 x    31           1074931200       0.0%    100.0%      0.0%
 flops    42 x    32 x    42           1198729728       0.0%    100.0%      0.0%
 flops    42 x    11 x    31           1200298176       0.0%    100.0%      0.0%
 flops    31 x    11 x    42           1201214784       0.0%    100.0%      0.0%
 flops    31 x    32 x     6           1513617408       0.0%    100.0%      0.0%
 flops     6 x    32 x    31           1513617408       0.0%    100.0%      0.0%
 flops    31 x    31 x    32           1775743488       0.0%    100.0%      0.0%
 flops    42 x    43 x    31           2508172800       0.0%    100.0%      0.0%
 flops    31 x    43 x    42           2508172800       0.0%    100.0%      0.0%
 flops    42 x    32 x    31           3531773952       0.0%    100.0%      0.0%
 flops    31 x    32 x    42           3534440448       0.0%    100.0%      0.0%
 flops    31 x    11 x    31           3544244880       0.0%    100.0%      0.0%
 flops    31 x    43 x    31           7801782400       0.0%    100.0%      0.0%
 flops    31 x    32 x    31          10428618240       0.0%    100.0%      0.0%
 flops    43 x    43 x     6          26625600000       0.0%    100.0%      0.0%
 flops    43 x    43 x    42          62126400000       0.0%    100.0%      0.0%
 flops    43 x    43 x    31         183420800000       0.0%    100.0%      0.0%
 flops inhomo. stacks                    19867032     100.0%      0.0%      0.0%
 flops total                       324.964405E+09       0.0%    100.0%      0.0%
 flops max/rank                      8.518157E+09       0.0%    100.0%      0.0%
 matmuls inhomo. stacks                       216     100.0%      0.0%      0.0%
 matmuls total                            5136740       0.0%    100.0%      0.0%
 number of processed stacks               1060624       0.0%    100.0%      0.0%
 average stack size                                     1.0       4.8       0.0
 marketing flops                   335.670772E+09
 -------------------------------------------------------------------------------
 # multiplications                           3484
 max memory usage/rank               1.372668E+09
 # max total images/rank                        1
 # max 3D layers                                1
 # MPI messages exchanged                 3121664
 MPI messages size (bytes):
  total size                        29.127307E+09
  min size                           0.000000E+00
  max size                         277.264000E+03
  average size                       9.330699E+03
 MPI breakdown and total messages size (bytes):
             size <=      128             1434454                        0
       128 < size <=     8192              238112                964311152
      8192 < size <=    32768             1422218              22845983888
     32768 < size <=   131072                   0                        0
    131072 < size <=  4194304               26880               5316864000
   4194304 < size <= 16777216                   0                        0
  16777216 < size                               0                        0
 -------------------------------------------------------------------------------
 -                                                                             -
 -                      DBCSR MESSAGE PASSING PERFORMANCE                      -
 -                                                                             -
 -------------------------------------------------------------------------------
 ROUTINE             CALLS      AVE VOLUME [Bytes]
 MP_Bcast              142                     12.
 MP_Allreduce        13239                      8.
 MP_Alltoall         79155                  12690.
 MP_ISend           111484                   5249.
 MP_IRecv           111484                   5417.
 -------------------------------------------------------------------------------

 -------------------------------------------------------------------------------
 -                                                                             -
 -                                DBM STATISTICS                               -
 -                                                                             -
 -------------------------------------------------------------------------------
    M  x    N  x    K                                          COUNT     PERCENT
 -------------------------------------------------------------------------------

 -------------------------------------------------------------------------------
 -                                                                             -
 -                                GRID STATISTICS                              -
 -                                                                             -
 -------------------------------------------------------------------------------
 LP    KERNEL             BACKEND                              COUNT     PERCENT
 1     collocate ortho    CPU                                1111000      13.40%
 1     integrate ortho    CPU                                1102750      13.30%
 2     collocate ortho    CPU                                 947380      11.43%
 2     integrate ortho    CPU                                 940345      11.34%
 0     collocate ortho    CPU                                 753864       9.09%
 0     integrate ortho    CPU                                 748266       9.03%
 3     collocate ortho    CPU                                 640340       7.73%
 3     integrate ortho    CPU                                 635585       7.67%
 2     collocate general  CPU                                 412672       4.98%
 4     collocate ortho    CPU                                 283204       3.42%
 4     integrate ortho    CPU                                 281101       3.39%
 2     integrate general  CPU                                 205824       2.48%
 5     collocate ortho    CPU                                  92112       1.11%
 5     integrate ortho    CPU                                  91428       1.10%
 6     collocate ortho    CPU                                  20604       0.25%
 6     integrate ortho    CPU                                  20451       0.25%
 0     collocate general  CPU                                   1024       0.01%
 0     integrate general  CPU                                   1024       0.01%
 -------------------------------------------------------------------------------

 MEMORY| Estimated peak process memory [MiB]                                1310

 -------------------------------------------------------------------------------
 ----                             MULTIGRID INFO                            ----
 -------------------------------------------------------------------------------
 count for grid        1:         681911          cutoff [a.u.]          600.00
 count for grid        2:          98013          cutoff [a.u.]          200.00
 count for grid        3:         107914          cutoff [a.u.]           66.67
 count for grid        4:          37418          cutoff [a.u.]           22.22
 count for grid        5:           1600          cutoff [a.u.]            7.41
 total gridlevel count  :         926856

 -------------------------------------------------------------------------------
 -                                                                             -
 -                         MESSAGE PASSING PERFORMANCE                         -
 -                                                                             -
 -------------------------------------------------------------------------------

 ROUTINE             CALLS      AVE VOLUME [Bytes]
 MP_Group                6
 MP_Bcast            14144                 375942.
 MP_Allreduce        55934                  14856.
 MP_Sync              4421
 MP_Alltoall         10886                4775133.
 MP_SendRecv         76356                  32544.
 MP_ISendRecv       176841                  27112.
 MP_Wait            365961
 MP_comm_split         408
 MP_ISend           162772                 234648.
 MP_IRecv           176430                 216324.
 -------------------------------------------------------------------------------


 -------------------------------------------------------------------------------
 -                                                                             -
 -                           R E F E R E N C E S                               -
 -                                                                             -
 -------------------------------------------------------------------------------
 
 CP2K version 2023.1 (Development Version), the CP2K developers group (2023).
 CP2K is freely available from https://www.cp2k.org/ .

 Kuehne,Thomas D.; Iannuzzi,Marcella; Del Ben,Mauro;
 Rybkin,Vladimir V.; Seewald,Patrick; Stein,Frederick; Laino,Teodoro;
 Khaliullin,Rustam Z.; Schuett,Ole; Schiffmann,Florian; Golze,Dorothea;
 Wilhelm,Jan; Chulkov,Sergey; Bani-Hashemian,Mohammad Hossein;
 Weber,Valery; Borstnik,Urban; Taillefumier,Mathieu;
 Jakobovits,Alice Shoshana; Lazzaro,Alfio; Pabst,Hans; Mueller,Tiziano;
 Schade,Robert; Guidon,Manuel; Andermatt,Samuel; Holmberg,Nico;
 Schenter,Gregory K.; Hehn,Anna; Bussy,Augustin; Belleflamme,Fabian;
 Tabacchi,Gloria; Gloess,Andreas; Lass,Michael; Bethune,Iain;
 Mundy,Christopher J.; Plessl,Christian; Watkins,Matt;
 VandeVondele,Joost; Krack,Matthias; Hutter,Juerg. 
 The Journal of Chemical Physics, 152 (19), (2020). 
 CP2K: An electronic structure and molecular dynamics software package -
 Quickstep: Efficient and accurate electronic structure calculations.
 https://doi.org/10.1063/5.0007045

 Schuett, Ole; Messmer, Peter; Hutter, Juerg; VandeVondele, Joost. 
 Electronic Structure Calculations on Graphics Processing Units, John
 Wiley & Sons, Ltd, 173-190 (2016). 
 GPU-Accelerated Sparse Matrix-Matrix Multiplication for
 Linear Scaling Density Functional Theory.
 https://doi.org/10.1002/9781118670712.ch8

 Heinecke, A; Henry, G; Hutchinson, M; Pabst, H. 
 Proceedings of Intl. Supercomputing Conference, 981-991 (2016). 
 LIBXSMM: Accelerating Small Matrix Multiplications
 by Runtime Code Generation.
 https://doi.org/10.1109/SC.2016.83

 Borstnik, U; VandeVondele, J; Weber, V; Hutter, J. 
 PARALLEL COMPUTING, 40 (5-6), 47-58 (2014). 
 Sparse matrix multiplication: The distributed block-compressed sparse
 row library.
 https://doi.org/10.1016/j.parco.2014.03.012

 Hutter, J; Iannuzzi, M; Schiffmann, F; VandeVondele, J. 
 WIREs Comput Mol Sci., 4 (1), 15-25 (2014). 
 CP2K: atomistic simulations of condensed matter systems.
 https://doi.org/10.1002/wcms.1159

 Guidon, M; Hutter, J; VandeVondele, J. 
 JOURNAL OF CHEMICAL THEORY AND COMPUTATION, 5 (11), 3010-3021 (2009). 
 Robust Periodic Hartree-Fock Exchange for Large-Scale Simulations Using
 Gaussian Basis Sets.
 https://doi.org/10.1021/ct900494g

 Guidon, M; Schiffmann, F; Hutter, J; VandeVondele, J. 
 JOURNAL OF CHEMICAL PHYSICS, 128 (21), 214104 (2008). 
 Ab initio molecular dynamics using hybrid density functionals.
 https://doi.org/10.1063/1.2931945

 Frigo, M; Johnson, SG. 
 PROCEEDINGS OF THE IEEE, 93 (2), 216-231 (2005). 
 The design and implementation of FFTW3.
 https://doi.org/10.1109/JPROC.2004.840301

 Iannuzzi, M; Chassaing, T; Wallman, T; Hutter, J. 
 CHIMIA, 59 (7-8), 499-503 (2005). 
 Ground and excited state density functional calculations with the
 Gaussian and augmented-plane-wave method.
 https://doi.org/10.2533/000942905777676164

 VandeVondele, J; Hutter, J. 
 JOURNAL OF CHEMICAL PHYSICS, 118 (10), 4365-4369 (2003). 
 An efficient orbital transformation method for electronic structure
 calculations.
 https://doi.org/10.1063/1.1543154

 Martin,Richard L.. 
 The Journal of Chemical Physics, 118 (11), 4775-4777 (2003). 
 Natural transition orbitals.
 https://doi.org/10.1063/1.1558471

 Lippert, G; Hutter, J; Parrinello, M. 
 THEORETICAL CHEMISTRY ACCOUNTS, 103 (2), 124-140 (1999). 
 The Gaussian and augmented-plane-wave density functional method for ab
 initio molecular dynamics simulations.
 https://doi.org/10.1007/s002140050523

 Krack, M; Parrinello, M. 
 PHYSICAL CHEMISTRY CHEMICAL PHYSICS, 2 (10), 2105-2112 (2000). 
 All-electron ab-initio molecular dynamics.
 https://doi.org/10.1039/b001167n

 Martyna, GJ; Tuckerman, ME. 
 JOURNAL OF CHEMICAL PHYSICS, 110 (6), 2810-2821 (1999). 
 A reciprocal space based method for treating long range interactions in
 ab initio and force-field-based calculations in clusters.
 https://doi.org/10.1063/1.477923

 Perdew, JP; Burke, K; Ernzerhof, M. 
 PHYSICAL REVIEW LETTERS, 77 (18), 3865-3868 (1996). 
 Generalized gradient approximation made simple.
 https://doi.org/10.1103/PhysRevLett.77.3865


 -------------------------------------------------------------------------------
 -                                                                             -
 -                                T I M I N G                                  -
 -                                                                             -
 -------------------------------------------------------------------------------
 SUBROUTINE                       CALLS  ASD         SELF TIME        TOTAL TIME
                                MAXIMUM       AVERAGE  MAXIMUM  AVERAGE  MAXIMUM
 CP2K                                 1  1.0    0.086    0.168  639.930  639.933
 qs_energies                          1  2.0    0.002    0.012  638.298  638.300
 qs_energies_properties               1  3.0    0.000    0.000  621.273  621.276
 tddfpt                               1  4.0    0.004    0.017  621.273  621.276
 tddfpt_energies                      3  5.7    0.003    0.039  620.344  620.350
 tddfpt_davidson_solver               4  7.0    0.001    0.003  595.865  595.867
 tddfpt_compute_Aop_evects            4  8.0    0.002    0.006  593.665  593.667
 fhxc_kernel                          4  9.0    0.011    0.017  331.931  331.933
 integrate_four_center              801 11.0    6.929   11.484  261.124  261.244
 tddfpt_apply_hfx                     4  9.0    0.005    0.010  256.770  256.771
 tddft_hfx_matrix                   800 10.0    0.010    0.018  249.862  249.986
 integrate_four_center_main         801 12.0    0.111    0.247  200.675  229.168
 integrate_four_center_bin        92196 13.0  200.564  229.028  200.564  229.028
 rs_pw_transfer                    4631 12.4    0.028    0.047  115.001  120.230
 pw_transfer                       9258 12.5    0.463    0.725  102.323  106.420
 fft_wrap_pw1pw2                   8453 13.6    0.035    0.051  101.701  105.873
 fft3d_ps                          8453 15.6   35.576   49.616   95.573  101.009
 fft_wrap_pw1pw2_600               5232 14.6    1.794    3.584   95.147  100.418
 integrate_v_rspace                 401 10.0    0.012    0.021   81.404   84.628
 mp_waitany                      162772 14.3   71.235   80.850   71.235   80.850
 potential_pw2rs                    401 11.0    0.026    0.033   77.319   80.085
 qs_rho_update_rho_low              404 10.0    0.005    0.017   72.425   72.922
 calculate_rho_elec                 404 11.0    1.420    1.770   69.948   70.439
 tddfpt_apply_xc_analytic           400 10.0    0.397    0.490   69.112   69.680
 mp_alltoall_z22v                  8453 17.6   57.504   68.793   57.504   68.793
 density_rs2pw                      404 12.0    0.013    0.019   57.435   60.623
 mp_sync                           4421 12.6   39.316   57.024   39.316   57.024
 prepare_gapw_den                   403 10.0    0.005    0.011   52.751   53.752
 xc_pw_derive                      3015 11.8    0.012    0.018   50.567   52.233
 yz_to_x                           3223 17.1    0.808    2.752   41.409   48.990
 calculate_xc_2nd_deriv_atom        400 10.0    1.749   12.041    5.215   47.237
 tddfpt_apply_coulomb               200 10.0    0.002    0.004   42.830   45.580
 xc_calc_2nd_deriv_analytical      2000 11.3   10.606   13.062   41.813   42.241
 rs_pw_transfer_RS2PW_600           808 13.5    4.970    6.834   31.720   36.563
 mp_waitall_1                    468251 14.6   28.082   34.917   28.082   34.917
 gaVxcgb_GC                         802 11.0    3.071   32.137    3.071   32.137
 mp_sum_d                          2477 10.4   26.308   31.443   26.308   31.443
 xc_pw_divergence                   401 12.0    0.005    0.008   29.568   31.234
 rs_pw_transfer_PW2RS_600           603 13.0    4.033    5.729   24.249   28.346
 put_rho0_on_grid                   403 11.0    1.750    2.184   27.167   28.170
 pw_poisson_solve                   201 11.0    0.102    0.259   22.299   25.059
 pw_integral_ab                     201 12.0    0.868    1.155   21.997   24.794
 rs_pw_transfer_RS2PW_200           404 14.0    0.726    1.054   22.586   23.995
 dbcsr_multiply_generic            3484 11.2    0.083    0.151   16.996   23.611
 rs_pw_transfer_PW2RS_200           401 13.0    0.658    1.134   18.289   22.365
 mp_isend_dm3                     20948 14.4    2.913   22.337    2.913   22.337
 cp_dbcsr_sm_fm_multiply           2620  9.4    0.034    0.067   21.620   21.769
 x_to_yz                           3620 16.2    0.975    2.141   17.794   20.666
 calculate_rho_atom                1209 11.0    7.153   19.249    7.153   19.249
 multiply_cannon                   3484 12.2    0.179    0.423   10.708   18.731
 integrate_vhg0_rspace              201 11.0    0.616    0.790   16.128   16.146
 multiply_cannon_loop              3484 13.2    0.098    0.200    7.415   16.018
 scf_env_do_scf                       1  3.0    0.001    0.005   15.408   15.408
 tddfpt_print_nto_analysis            2  7.0    0.019    0.044   15.255   15.255
 mp_sum_dv                        31118  9.7   13.146   14.708   13.146   14.708
 rs_pw_transfer_PW2RS_70            401 13.0    0.465    0.569   10.677   14.301
 cp_dbcsr_sm_fm_multiply_core      2620 10.4    0.005    0.010    9.475   14.278
 init_scf_loop                        1  4.0    0.001    0.006   14.258   14.260
 mp_alltoall_i22                  11125 12.4   11.386   13.948   11.386   13.948
 copy_dbcsr_to_fm                  2844 10.2    0.024    0.038   11.543   13.914
 qs_ks_update_qs_env                  2  5.0    0.000    0.000   12.999   13.027
 rebuild_ks_matrix                    1  6.0    0.000    0.000   12.993   13.020
 qs_ks_build_kohn_sham_matrix         1  7.0    0.005    0.018   12.993   13.020
 -------------------------------------------------------------------------------

 The number of warnings for this run is : 0
 
 -------------------------------------------------------------------------------
  **** **** ******  **  PROGRAM ENDED AT                 2023-06-30 12:35:17.247
 ***** ** ***  *** **   PROGRAM RAN ON                                      n106
 **    ****   ******    PROGRAM RAN BY                                  suphc355
 ***** **    ** ** **   PROGRAM PROCESS ID                                381836
  **** **  *******  **  PROGRAM STOPPED IN /work_beegfs/suphc355/pbe0_bm_final/b
                                           ithiophen/cp2k
