 DBCSR| CPU Multiplication driver                                           XSMM (U)
 DBCSR| Multrec recursion limit                                              512 (U)
 DBCSR| Multiplication stack size                                           1000 (D)
 DBCSR| Maximum elements for images                                    UNLIMITED (U)
 DBCSR| Multiplicative factor virtual images                                   1 (U)
 DBCSR| Use multiplication densification                                       T (D)
 DBCSR| Multiplication size stacks                                             3 (U)
 DBCSR| Use memory pool for CPU allocation                                     F (U)
 DBCSR| Number of 3D layers                                               SINGLE (U)
 DBCSR| Use MPI memory allocation                                              F (U)
 DBCSR| Use RMA algorithm                                                      F (U)
 DBCSR| Use Communication thread                                               T (U)
 DBCSR| Communication thread load                                             83 (D)
 DBCSR| MPI: My process id                                                     0
 DBCSR| MPI: Number of processes                                              64
 DBCSR| OMP: Current number of threads                                         2
 DBCSR| OMP: Max number of threads                                             2
 DBCSR| Split modifier for TAS multiplication algorithm                  1.0E+00 (U)


  **** **** ******  **  PROGRAM STARTED AT               2023-07-03 10:32:28.232
 ***** ** ***  *** **   PROGRAM STARTED ON                                  n100
 **    ****   ******    PROGRAM STARTED BY                              suphc355
 ***** **    ** ** **   PROGRAM PROCESS ID                               1152816
  **** **  *******  **  PROGRAM STARTED IN /work_beegfs/suphc355/pbe0_bm_final/b
                                           ithiophen/cp2k

 CP2K| version string:                 CP2K version 2023.1 (Development Version)
 CP2K| source code revision number:                                  git:5b5a2b7
 CP2K| cp2kflags: omp libint fftw3 libxc parallel mpi_f08 scalapack cosma xsmm s
 CP2K|            pglib libvori libbqb
 CP2K| is freely available from                            https://www.cp2k.org/
 CP2K| Program compiled at                         Thu Jun 29 10:57:48 CEST 2023
 CP2K| Program compiled on                                           caucluster2
 CP2K| Program compiled for                                                local
 CP2K| Data directory path              /zfshome/suphc355/software/cp2k_dev/data
 CP2K| Input file name                                                   les.inp
 
 GLOBAL| Force Environment number                                              1
 GLOBAL| Basis set file name                                     EMSL_BASIS_SETS
 GLOBAL| Potential file name                                           POTENTIAL
 GLOBAL| MM Potential file name                                     MM_POTENTIAL
 GLOBAL| Coordinate file name                                            lit.xyz
 GLOBAL| Method name                                                        CP2K
 GLOBAL| Project name                                            bithiophen_less
 GLOBAL| Run type                                                         ENERGY
 GLOBAL| FFT library                                                       FFTW3
 GLOBAL| Diagonalization library                                       ScaLAPACK
 GLOBAL| DGEMM library                                                      BLAS
 GLOBAL| Orthonormality check for eigenvectors                          DISABLED
 GLOBAL| Matrix multiplication library                                     COSMA
 GLOBAL| All-to-all communication in single precision                          F
 GLOBAL| FFTs using library dependent lengths                                  F
 GLOBAL| Grid backend                                                       AUTO
 GLOBAL| Global print level                                               MEDIUM
 GLOBAL| MPI I/O enabled                                                       T
 GLOBAL| Total number of message passing processes                            64
 GLOBAL| Number of threads for this process                                    2
 GLOBAL| This output is from process                                           0
 GLOBAL| Stack size for threads created by OpenMP (OMP_STACKSIZE)        default
 GLOBAL| CPU model name                          AMD EPYC 7313 16-Core Processor
 GLOBAL| CPUID                                                              1002

 MEMORY| system memory details [Kb]
 MEMORY|                        rank 0           min           max       average
 MEMORY| MemTotal            263983472     263983472     263983476     263983474
 MEMORY| MemFree             252788884     245863236     254851824     250144802
 MEMORY| Buffers                261180        222332        276156        251920
 MEMORY| Cached                3495540       1802208       4338276       2935316
 MEMORY| Slab                  2487204       1668924       8543604       5565825
 MEMORY| SReclaimable          1335340        864912       3159188       1687265
 MEMORY| MemLikelyFree       257880944     252262628     258057188     255019305


 *** Fundamental physical constants (SI units) ***

 *** Literature: B. J. Mohr and B. N. Taylor,
 ***             CODATA recommended values of the fundamental physical
 ***             constants: 2006, Web Version 5.1
 ***             http://physics.nist.gov/constants

 Speed of light in vacuum [m/s]                             2.99792458000000E+08
 Magnetic constant or permeability of vacuum [N/A**2]       1.25663706143592E-06
 Electric constant or permittivity of vacuum [F/m]          8.85418781762039E-12
 Planck constant (h) [J*s]                                  6.62606896000000E-34
 Planck constant (h-bar) [J*s]                              1.05457162825177E-34
 Elementary charge [C]                                      1.60217648700000E-19
 Electron mass [kg]                                         9.10938215000000E-31
 Electron g factor [ ]                                     -2.00231930436220E+00
 Proton mass [kg]                                           1.67262163700000E-27
 Fine-structure constant                                    7.29735253760000E-03
 Rydberg constant [1/m]                                     1.09737315685270E+07
 Avogadro constant [1/mol]                                  6.02214179000000E+23
 Boltzmann constant [J/K]                                   1.38065040000000E-23
 Atomic mass unit [kg]                                      1.66053878200000E-27
 Bohr radius [m]                                            5.29177208590000E-11

 *** Conversion factors ***

 [u] -> [a.u.]                                              1.82288848426455E+03
 [Angstrom] -> [Bohr] = [a.u.]                              1.88972613288564E+00
 [a.u.] = [Bohr] -> [Angstrom]                              5.29177208590000E-01
 [a.u.] -> [s]                                              2.41888432650478E-17
 [a.u.] -> [fs]                                             2.41888432650478E-02
 [a.u.] -> [J]                                              4.35974393937059E-18
 [a.u.] -> [N]                                              8.23872205491840E-08
 [a.u.] -> [K]                                              3.15774647902944E+05
 [a.u.] -> [kJ/mol]                                         2.62549961709828E+03
 [a.u.] -> [kcal/mol]                                       6.27509468713739E+02
 [a.u.] -> [Pa]                                             2.94210107994716E+13
 [a.u.] -> [bar]                                            2.94210107994716E+08
 [a.u.] -> [atm]                                            2.90362800883016E+08
 [a.u.] -> [eV]                                             2.72113838565563E+01
 [a.u.] -> [Hz]                                             6.57968392072181E+15
 [a.u.] -> [1/cm] (wave numbers)                            2.19474631370540E+05
 [a.u./Bohr**2] -> [1/cm]                                   5.14048714338585E+03
 

 CELL_TOP| Volume [angstrom^3]:                                      1000.000000
 CELL_TOP| Vector a [angstrom    10.000     0.000     0.000   |a| =    10.000000
 CELL_TOP| Vector b [angstrom     0.000    10.000     0.000   |b| =    10.000000
 CELL_TOP| Vector c [angstrom     0.000     0.000    10.000   |c| =    10.000000
 CELL_TOP| Angle (b,c), alpha [degree]:                                90.000000
 CELL_TOP| Angle (a,c), beta  [degree]:                                90.000000
 CELL_TOP| Angle (a,b), gamma [degree]:                                90.000000
 CELL_TOP| Numerically orthorhombic:                                         YES
 CELL_TOP| Periodicity                                                      NONE

 CELL| Volume [angstrom^3]:                                          1000.000000
 CELL| Vector a [angstrom]:      10.000     0.000     0.000   |a| =    10.000000
 CELL| Vector b [angstrom]:       0.000    10.000     0.000   |b| =    10.000000
 CELL| Vector c [angstrom]:       0.000     0.000    10.000   |c| =    10.000000
 CELL| Angle (b,c), alpha [degree]:                                    90.000000
 CELL| Angle (a,c), beta  [degree]:                                    90.000000
 CELL| Angle (a,b), gamma [degree]:                                    90.000000
 CELL| Numerically orthorhombic:                                             YES
 CELL| Periodicity                                                          NONE

 CELL_REF| Volume [angstrom^3]:                                      1000.000000
 CELL_REF| Vector a [angstrom    10.000     0.000     0.000   |a| =    10.000000
 CELL_REF| Vector b [angstrom     0.000    10.000     0.000   |b| =    10.000000
 CELL_REF| Vector c [angstrom     0.000     0.000    10.000   |c| =    10.000000
 CELL_REF| Angle (b,c), alpha [degree]:                                90.000000
 CELL_REF| Angle (a,c), beta  [degree]:                                90.000000
 CELL_REF| Angle (a,b), gamma [degree]:                                90.000000
 CELL_REF| Numerically orthorhombic:                                         YES
 CELL_REF| Periodicity                                                      NONE

 *******************************************************************************
 *******************************************************************************
 **                                                                           **
 **     #####                         ##              ##                      **
 **    ##   ##            ##          ##              ##                      **
 **   ##     ##                       ##            ######                    **
 **   ##     ##  ##   ##  ##   #####  ##  ##   ####   ##    #####    #####    **
 **   ##     ##  ##   ##  ##  ##      ## ##   ##      ##   ##   ##  ##   ##   **
 **   ##  ## ##  ##   ##  ##  ##      ####     ###    ##   ######   ######    **
 **    ##  ###   ##   ##  ##  ##      ## ##      ##   ##   ##       ##        **
 **     #######   #####   ##   #####  ##  ##  ####    ##    #####   ##        **
 **           ##                                                    ##        **
 **                                                                           **
 **                                                ... make the atoms dance   **
 **                                                                           **
 **            Copyright (C) by CP2K developers group (2000-2023)             **
 **                      J. Chem. Phys. 152, 194103 (2020)                    **
 **                                                                           **
 *******************************************************************************

 DFT| Spin restricted Kohn-Sham (RKS) calculation                            RKS
 DFT| Multiplicity                                                             1
 DFT| Number of spin states                                                    1
 DFT| Charge                                                                   0
 DFT| Self-interaction correction (SIC)                                       NO
 DFT| Cutoffs: density                                              1.000000E-10
 DFT|          gradient                                             1.000000E-10
 DFT|          tau                                                  1.000000E-10
 DFT|          cutoff_smoothing_range                               0.000000E+00
 DFT| XC density smoothing                                                  NONE
 DFT| XC derivatives                                                          PW

 FUNCTIONAL| PBE:
 FUNCTIONAL| J.P.Perdew, K.Burke, M.Ernzerhof, Phys. Rev. Letter, vol. 77, n 18,
 FUNCTIONAL|  pp. 3865-3868, (1996)sx=0.750sc=1.000{spin unpolarized}           


 QS| Method:                                                                GAPW
 QS| Density plane wave grid type                        NON-SPHERICAL FULLSPACE
 QS| Number of grid levels:                                                    5
 QS| Density cutoff [a.u.]:                                                600.0
 QS| Multi grid cutoff [a.u.]: 1) grid level                               600.0
 QS|                           2) grid level                               200.0
 QS|                           3) grid level                                66.7
 QS|                           4) grid level                                22.2
 QS|                           5) grid level                                 7.4
 QS| Grid level progression factor:                                          3.0
 QS| Relative density cutoff [a.u.]:                                        40.0
 QS| Interaction thresholds: eps_pgf_orb:                                1.0E-30
 QS|                         eps_filter_matrix:                          0.0E+00
 QS|                         eps_core_charge:                            1.0E-17
 QS|                         eps_rho_gspace:                             1.0E-15
 QS|                         eps_rho_rspace:                             1.0E-15
 QS|                         eps_gvg_rspace:                             3.2E-08
 QS|                         eps_ppl:                                    1.0E-02
 QS|                         eps_ppnl:                                   3.2E-10
 QS| GAPW|      One center basis from orbital basis primitives
 QS| GAPW|                   eps_fit:                                    1.0E-04
 QS| GAPW|                   eps_iso:                                    1.0E-12
 QS| GAPW|                   eps_svd:                                    1.0E-08
 QS| GAPW|                   eps_cpc:                                    1.0E-15
 QS| GAPW|   atom-r-grid: quadrature:                                     GC_LOG
 QS| GAPW|      atom-s-grid:  max l :                                          6
 QS| GAPW|      max_l_rho0 :                                                   2


 ATOMIC KIND INFORMATION

  1. Atomic kind: S                                     Number of atoms:       2

     Orbital Basis Set                                                def2-TZVPP

       Number of orbital shell sets:                                          14
       Number of orbital shells:                                              14
       Number of primitive Cartesian functions:                               27
       Number of Cartesian basis functions:                                   48
       Number of spherical basis functions:                                   42
       Norm type:                                                              2

       Normalised Cartesian orbitals:

                        Set   Shell   Orbital            Exponent    Coefficient

                          1       1    1s            60700.928104       1.443686
                                                      9102.610685       2.690342
                                                      2071.416601       4.557613
                                                       586.024768       6.918117
                                                       190.553950       8.681024
                                                        67.630384       7.517583
                                                        25.127307       2.790901

                          2       1    1s              112.574630       2.474372
                                                        34.795554       4.430516
                                                         6.511556      -3.510721

                          3       1    1s                3.239903       1.161718
                                                         1.547716       0.343256

                          4       1    1s                0.405410       0.362102

                          5       1    1s                0.145507       0.167908

                          6       1    1px             564.367160      13.679018
                                                       133.426244      17.895267
                                                        42.468271      19.562932
                                                        15.616528      16.003695
                                                         6.109399       8.381967
                          6       1    1py             564.367160      13.679018
                                                       133.426244      17.895267
                                                        42.468271      19.562932
                                                        15.616528      16.003695
                                                         6.109399       8.381967
                          6       1    1pz             564.367160      13.679018
                                                       133.426244      17.895267
                                                        42.468271      19.562932
                                                        15.616528      16.003695
                                                         6.109399       8.381967

                          7       1    1px               2.440416       4.347804
                          7       1    1py               2.440416       4.347804
                          7       1    1pz               2.440416       4.347804

                          8       1    1px               0.838822       1.144267
                          8       1    1py               0.838822       1.144267
                          8       1    1pz               0.838822       1.144267

                          9       1    1px               0.312887       0.333561
                          9       1    1py               0.312887       0.333561
                          9       1    1pz               0.312887       0.333561

                         10       1    1px               0.107701       0.087946
                         10       1    1py               0.107701       0.087946
                         10       1    1pz               0.107701       0.087946

                         11       1    1dx2              3.756000      16.679354
                         11       1    1dxy              3.756000      28.889489
                         11       1    1dxz              3.756000      28.889489
                         11       1    1dy2              3.756000      16.679354
                         11       1    1dyz              3.756000      28.889489
                         11       1    1dz2              3.756000      16.679354

                         12       1    1dx2              0.812000       1.143227
                         12       1    1dxy              0.812000       1.980127
                         12       1    1dxz              0.812000       1.980127
                         12       1    1dy2              0.812000       1.143227
                         12       1    1dyz              0.812000       1.980127
                         12       1    1dz2              0.812000       1.143227

                         13       1    1dx2              0.273000       0.169705
                         13       1    1dxy              0.273000       0.293937
                         13       1    1dxz              0.273000       0.293937
                         13       1    1dy2              0.273000       0.169705
                         13       1    1dyz              0.273000       0.293937
                         13       1    1dz2              0.273000       0.169705

                         14       1    1fx3              0.557000       0.394574
                         14       1    1fx2y             0.557000       0.882295
                         14       1    1fx2z             0.557000       0.882295
                         14       1    1fxy2             0.557000       0.882295
                         14       1    1fxyz             0.557000       1.528179
                         14       1    1fxz2             0.557000       0.882295
                         14       1    1fy3              0.557000       0.394574
                         14       1    1fy2z             0.557000       0.882295
                         14       1    1fyz2             0.557000       0.882295
                         14       1    1fz3              0.557000       0.394574

       Atomic covalent radius [Angstrom]:                                  1.020

       Atomic van der Waals radius [Angstrom]:                             1.800

     The atoms of this atomic kind are PAW atoms (GAPW):
       Hard Gaussian function radius:                                      1.512
       Rho0 radius:                                                        1.512
       Maximum GTO radius used for PAW projector construction:            24.566

     GAPW Soft Basis Set                                         def2-TZVPP_soft

       Number of orbital shell sets:                                          14
       Number of orbital shells:                                              14
       Number of primitive Cartesian functions:                               12
       Number of Cartesian basis functions:                                   48
       Number of spherical basis functions:                                   42
       Norm type:                                                              2

       Normalised Cartesian orbitals:

                        Set   Shell   Orbital            Exponent    Coefficient

                          1       1    1s         

                          2       1    1s         

                          3       1    1s                3.239903       1.161718
                                                         1.547716       0.343256

                          4       1    1s                0.405410       0.362102

                          5       1    1s                0.145507       0.167908

                          6       1    1px        
                          6       1    1py        
                          6       1    1pz        

                          7       1    1px               2.440416       4.347804
                          7       1    1py               2.440416       4.347804
                          7       1    1pz               2.440416       4.347804

                          8       1    1px               0.838822       1.144267
                          8       1    1py               0.838822       1.144267
                          8       1    1pz               0.838822       1.144267

                          9       1    1px               0.312887       0.333561
                          9       1    1py               0.312887       0.333561
                          9       1    1pz               0.312887       0.333561

                         10       1    1px               0.107701       0.087946
                         10       1    1py               0.107701       0.087946
                         10       1    1pz               0.107701       0.087946

                         11       1    1dx2              3.756000      16.679354
                         11       1    1dxy              3.756000      28.889489
                         11       1    1dxz              3.756000      28.889489
                         11       1    1dy2              3.756000      16.679354
                         11       1    1dyz              3.756000      28.889489
                         11       1    1dz2              3.756000      16.679354

                         12       1    1dx2              0.812000       1.143227
                         12       1    1dxy              0.812000       1.980127
                         12       1    1dxz              0.812000       1.980127
                         12       1    1dy2              0.812000       1.143227
                         12       1    1dyz              0.812000       1.980127
                         12       1    1dz2              0.812000       1.143227

                         13       1    1dx2              0.273000       0.169705
                         13       1    1dxy              0.273000       0.293937
                         13       1    1dxz              0.273000       0.293937
                         13       1    1dy2              0.273000       0.169705
                         13       1    1dyz              0.273000       0.293937
                         13       1    1dz2              0.273000       0.169705

                         14       1    1fx3              0.557000       0.394574
                         14       1    1fx2y             0.557000       0.882295
                         14       1    1fx2z             0.557000       0.882295
                         14       1    1fxy2             0.557000       0.882295
                         14       1    1fxyz             0.557000       1.528179
                         14       1    1fxz2             0.557000       0.882295
                         14       1    1fy3              0.557000       0.394574
                         14       1    1fy2z             0.557000       0.882295
                         14       1    1fyz2             0.557000       0.882295
                         14       1    1fz3              0.557000       0.394574

     AE Potential information for                                            ALL

       Description:                                       All-electron potential
                                          Krack, Parrinello, PCCP 2, 2105 (2000)

       Gaussian exponent of the core charge distribution:               2.834467
       Electronic configuration (s p d ...):                           6  10   0

  2. Atomic kind: C                                     Number of atoms:       8

     Orbital Basis Set                                        Ahlrichs-def2-TZVP

       Number of orbital shell sets:                                          11
       Number of orbital shells:                                              11
       Number of primitive Cartesian functions:                               20
       Number of Cartesian basis functions:                                   36
       Number of spherical basis functions:                                   31
       Norm type:                                                              2

       Normalised Cartesian orbitals:

                        Set   Shell   Orbital            Exponent    Coefficient

                          1       1    1s            13575.349682       0.543591
                                                      2035.233368       1.014554
                                                       463.225624       1.731573
                                                       131.200196       2.691038
                                                        42.853016       3.604455
                                                        15.584186       3.702556

                          2       1    1s                6.206714       1.838354
                                                         2.576490       0.544758

                          3       1    1s                0.576963       0.471815

                          4       1    1s                0.229728       0.236494

                          5       1    1s                0.095164       0.122114

                          6       1    1px              34.697232       1.359665
                                                         7.958262       1.451259
                                                         2.378083       1.270923
                                                         0.814332       0.802572
                          6       1    1py              34.697232       1.359665
                                                         7.958262       1.451259
                                                         2.378083       1.270923
                                                         0.814332       0.802572
                          6       1    1pz              34.697232       1.359665
                                                         7.958262       1.451259
                                                         2.378083       1.270923
                                                         0.814332       0.802572

                          7       1    1px               0.288875       0.301876
                          7       1    1py               0.288875       0.301876
                          7       1    1pz               0.288875       0.301876

                          8       1    1px               0.100568       0.080727
                          8       1    1py               0.100568       0.080727
                          8       1    1pz               0.100568       0.080727

                          9       1    1dx2              1.097000       1.935401
                          9       1    1dxy              1.097000       3.352214
                          9       1    1dxz              1.097000       3.352214
                          9       1    1dy2              1.097000       1.935401
                          9       1    1dyz              1.097000       3.352214
                          9       1    1dz2              1.097000       1.935401

                         10       1    1dx2              0.318000       0.221644
                         10       1    1dxy              0.318000       0.383899
                         10       1    1dxz              0.318000       0.383899
                         10       1    1dy2              0.318000       0.221644
                         10       1    1dyz              0.318000       0.383899
                         10       1    1dz2              0.318000       0.221644

                         11       1    1fx3              0.761000       0.796288
                         11       1    1fx2y             0.761000       1.780553
                         11       1    1fx2z             0.761000       1.780553
                         11       1    1fxy2             0.761000       1.780553
                         11       1    1fxyz             0.761000       3.084008
                         11       1    1fxz2             0.761000       1.780553
                         11       1    1fy3              0.761000       0.796288
                         11       1    1fy2z             0.761000       1.780553
                         11       1    1fyz2             0.761000       1.780553
                         11       1    1fz3              0.761000       0.796288

       Atomic covalent radius [Angstrom]:                                  0.770

       Atomic van der Waals radius [Angstrom]:                             1.700

     The atoms of this atomic kind are PAW atoms (GAPW):
       Hard Gaussian function radius:                                      1.512
       Rho0 radius:                                                        1.512
       Maximum GTO radius used for PAW projector construction:            24.566

     GAPW Soft Basis Set                                 Ahlrichs-def2-TZVP_soft

       Number of orbital shell sets:                                          11
       Number of orbital shells:                                              11
       Number of primitive Cartesian functions:                               11
       Number of Cartesian basis functions:                                   36
       Number of spherical basis functions:                                   31
       Norm type:                                                              2

       Normalised Cartesian orbitals:

                        Set   Shell   Orbital            Exponent    Coefficient

                          1       1    1s         

                          2       1    1s                2.576490       0.544758

                          3       1    1s                0.576963       0.471815

                          4       1    1s                0.229728       0.236494

                          5       1    1s                0.095164       0.122114

                          6       1    1px               2.378083       1.270923
                                                         0.814332       0.802572
                          6       1    1py               2.378083       1.270923
                                                         0.814332       0.802572
                          6       1    1pz               2.378083       1.270923
                                                         0.814332       0.802572

                          7       1    1px               0.288875       0.301876
                          7       1    1py               0.288875       0.301876
                          7       1    1pz               0.288875       0.301876

                          8       1    1px               0.100568       0.080727
                          8       1    1py               0.100568       0.080727
                          8       1    1pz               0.100568       0.080727

                          9       1    1dx2              1.097000       1.935401
                          9       1    1dxy              1.097000       3.352214
                          9       1    1dxz              1.097000       3.352214
                          9       1    1dy2              1.097000       1.935401
                          9       1    1dyz              1.097000       3.352214
                          9       1    1dz2              1.097000       1.935401

                         10       1    1dx2              0.318000       0.221644
                         10       1    1dxy              0.318000       0.383899
                         10       1    1dxz              0.318000       0.383899
                         10       1    1dy2              0.318000       0.221644
                         10       1    1dyz              0.318000       0.383899
                         10       1    1dz2              0.318000       0.221644

                         11       1    1fx3              0.761000       0.796288
                         11       1    1fx2y             0.761000       1.780553
                         11       1    1fx2z             0.761000       1.780553
                         11       1    1fxy2             0.761000       1.780553
                         11       1    1fxyz             0.761000       3.084008
                         11       1    1fxz2             0.761000       1.780553
                         11       1    1fy3              0.761000       0.796288
                         11       1    1fy2z             0.761000       1.780553
                         11       1    1fyz2             0.761000       1.780553
                         11       1    1fz3              0.761000       0.796288

     AE Potential information for                                            ALL

       Description:                                       All-electron potential
                                          Krack, Parrinello, PCCP 2, 2105 (2000)

       Gaussian exponent of the core charge distribution:               4.109048
       Electronic configuration (s p d ...):                           4   2   0

  3. Atomic kind: H                                     Number of atoms:       6

     Orbital Basis Set                                        Ahlrichs-def2-TZVP

       Number of orbital shell sets:                                           4
       Number of orbital shells:                                               4
       Number of primitive Cartesian functions:                                6
       Number of Cartesian basis functions:                                    6
       Number of spherical basis functions:                                    6
       Norm type:                                                              2

       Normalised Cartesian orbitals:

                        Set   Shell   Orbital            Exponent    Coefficient

                          1       1    1s               34.061341       0.255630
                                                         5.123575       0.461360
                                                         1.164663       0.681121

                          2       1    1s                0.327230       0.308355

                          3       1    1s                0.103072       0.129648

                          4       1    1px               0.800000       1.078456
                          4       1    1py               0.800000       1.078456
                          4       1    1pz               0.800000       1.078456

       Atomic covalent radius [Angstrom]:                                  0.320

       Atomic van der Waals radius [Angstrom]:                             1.090

     The atoms of this atomic kind are PAW atoms (GAPW):
       Hard Gaussian function radius:                                      1.200
       Rho0 radius:                                                        1.200
       Maximum GTO radius used for PAW projector construction:            24.566

     GAPW Soft Basis Set                                 Ahlrichs-def2-TZVP_soft

       Number of orbital shell sets:                                           4
       Number of orbital shells:                                               4
       Number of primitive Cartesian functions:                                5
       Number of Cartesian basis functions:                                    6
       Number of spherical basis functions:                                    6
       Norm type:                                                              2

       Normalised Cartesian orbitals:

                        Set   Shell   Orbital            Exponent    Coefficient

                          1       1    1s                5.123575       0.461360
                                                         1.164663       0.681121

                          2       1    1s                0.327230       0.308355

                          3       1    1s                0.103072       0.129648

                          4       1    1px               0.800000       1.078456
                          4       1    1py               0.800000       1.078456
                          4       1    1pz               0.800000       1.078456

     AE Potential information for                                            ALL

       Description:                                       All-electron potential
                                          Krack, Parrinello, PCCP 2, 2105 (2000)

       Gaussian exponent of the core charge distribution:              12.500000
       Electronic configuration (s p d ...):                           1   0   0


 MOLECULE KIND INFORMATION


 All atoms are their own molecule, skipping detailed information


 TOTAL NUMBERS AND MAXIMUM NUMBERS

  Total number of            - Atomic kinds:                                   3
                             - Atoms:                                         16
                             - Shell sets:                                   140
                             - Shells:                                       140
                             - Primitive Cartesian functions:                250
                             - Cartesian basis functions:                    420
                             - Spherical basis functions:                    368

  Maximum angular momentum of the orbital basis functions:                     3


 MODULE QUICKSTEP: ATOMIC COORDINATES IN ANGSTROM

   Atom Kind Element         X             Y             Z       Z(eff)     Mass
      1    1 S    16      2.899226      5.576228      5.438863  16.0000  32.0650
      2    2 C     6      4.607600      5.609857      5.073713   6.0000  12.0107
      3    2 C     6      5.010656      6.900010      4.824076   6.0000  12.0107
      4    2 C     6      3.959326      7.849987      4.913565   6.0000  12.0107
      5    2 C     6      2.758402      7.284269      5.229353   6.0000  12.0107
      6    2 C     6      5.392400      4.390143      5.073713   6.0000  12.0107
      7    2 C     6      4.989344      3.099990      4.824076   6.0000  12.0107
      8    2 C     6      6.040674      2.150013      4.913565   6.0000  12.0107
      9    2 C     6      7.241598      2.715731      5.229353   6.0000  12.0107
     10    1 S    16      7.100774      4.423772      5.438863  16.0000  32.0650
     11    3 H     1      8.198563      2.233823      5.351798   1.0000   1.0079
     12    3 H     1      1.801437      7.766177      5.351798   1.0000   1.0079
     13    3 H     1      4.091104      8.909699      4.740910   1.0000   1.0079
     14    3 H     1      6.028582      7.155171      4.561137   1.0000   1.0079
     15    3 H     1      3.971418      2.844829      4.561137   1.0000   1.0079
     16    3 H     1      5.908896      1.090301      4.740910   1.0000   1.0079



 SCF PARAMETERS         Density guess:                                   RESTART
                        --------------------------------------------------------
                        max_scf:                                              20
                        max_scf_history:                                       0
                        max_diis:                                              4
                        --------------------------------------------------------
                        eps_scf:                                        1.00E-07
                        eps_scf_history:                                0.00E+00
                        eps_diis:                                       1.00E-01
                        eps_eigval:                                     1.00E-05
                        --------------------------------------------------------
                        level_shift [a.u.]:                             0.000000
                        --------------------------------------------------------
                        Outer loop SCF in use 
                        No variables optimised in outer loop
                        eps_scf                                         1.00E-07
                        max_scf                                              200
                        No outer loop optimization
                        step_size                                       5.00E-01

 PW_GRID| Information for grid number                                          1
 PW_GRID| Grid distributed over                                    64 processors
 PW_GRID| Real space group dimensions                                    64    1
 PW_GRID| the grid is blocked:                                                NO
 PW_GRID| Cutoff [a.u.]                                                   1200.0
 PW_GRID| spherical cutoff:                                                   NO
 PW_GRID|   Bounds   1           -150     149                Points:         300
 PW_GRID|   Bounds   2           -150     149                Points:         300
 PW_GRID|   Bounds   3           -150     149                Points:         300
 PW_GRID| Volume element (a.u.^3)  0.2499E-03     Volume (a.u.^3)      6748.3346
 PW_GRID| Grid span                                                    FULLSPACE
 PW_GRID|   Distribution                         Average         Max         Min
 PW_GRID|   G-Vectors                           421875.0      422100      421800
 PW_GRID|   G-Rays                                1406.2        1407        1406
 PW_GRID|   Real Space Points                   421875.0      450000      360000

 PW_GRID| Information for grid number                                          2
 PW_GRID| Number of the reference grid                                         1
 PW_GRID| Grid distributed over                                    64 processors
 PW_GRID| Real space group dimensions                                    64    1
 PW_GRID| the grid is blocked:                                                NO
 PW_GRID| Cutoff [a.u.]                                                    600.0
 PW_GRID| spherical cutoff:                                                   NO
 PW_GRID|   Bounds   1           -108     107                Points:         216
 PW_GRID|   Bounds   2           -108     107                Points:         216
 PW_GRID|   Bounds   3           -108     107                Points:         216
 PW_GRID| Volume element (a.u.^3)  0.6696E-03     Volume (a.u.^3)      6748.3346
 PW_GRID| Grid span                                                    FULLSPACE
 PW_GRID|   Distribution                         Average         Max         Min
 PW_GRID|   G-Vectors                           157464.0      157680      157248
 PW_GRID|   G-Rays                                 729.0         730         728
 PW_GRID|   Real Space Points                   157464.0      186624      139968

 PW_GRID| Information for grid number                                          3
 PW_GRID| Number of the reference grid                                         2
 PW_GRID| Grid distributed over                                    64 processors
 PW_GRID| Real space group dimensions                                    64    1
 PW_GRID| the grid is blocked:                                                NO
 PW_GRID| Cutoff [a.u.]                                                    200.0
 PW_GRID| spherical cutoff:                                                   NO
 PW_GRID|   Bounds   1            -62      62                Points:         125
 PW_GRID|   Bounds   2            -62      62                Points:         125
 PW_GRID|   Bounds   3            -62      62                Points:         125
 PW_GRID| Volume element (a.u.^3)  0.3455E-02     Volume (a.u.^3)      6748.3346
 PW_GRID| Grid span                                                    FULLSPACE
 PW_GRID|   Distribution                         Average         Max         Min
 PW_GRID|   G-Vectors                            30517.6       30625       30375
 PW_GRID|   G-Rays                                 244.1         245         243
 PW_GRID|   Real Space Points                    30517.6       31250       15625

 PW_GRID| Information for grid number                                          4
 PW_GRID| Number of the reference grid                                         2
 PW_GRID| Grid distributed over                                    64 processors
 PW_GRID| Real space group dimensions                                    64    1
 PW_GRID| the grid is blocked:                                                NO
 PW_GRID| Cutoff [a.u.]                                                     66.7
 PW_GRID| spherical cutoff:                                                   NO
 PW_GRID|   Bounds   1            -36      35                Points:          72
 PW_GRID|   Bounds   2            -36      35                Points:          72
 PW_GRID|   Bounds   3            -36      35                Points:          72
 PW_GRID| Volume element (a.u.^3)  0.1808E-01     Volume (a.u.^3)      6748.3346
 PW_GRID| Grid span                                                    FULLSPACE
 PW_GRID|   Distribution                         Average         Max         Min
 PW_GRID|   G-Vectors                             5832.0        5904        5760
 PW_GRID|   G-Rays                                  81.0          82          80
 PW_GRID|   Real Space Points                     5832.0       10368        5184

 PW_GRID| Information for grid number                                          5
 PW_GRID| Number of the reference grid                                         2
 PW_GRID| Grid distributed over                                    64 processors
 PW_GRID| Real space group dimensions                                     8    8
 PW_GRID| the grid is blocked:                                                NO
 PW_GRID| Cutoff [a.u.]                                                     22.2
 PW_GRID| spherical cutoff:                                                   NO
 PW_GRID|   Bounds   1            -22      22                Points:          45
 PW_GRID|   Bounds   2            -22      22                Points:          45
 PW_GRID|   Bounds   3            -22      22                Points:          45
 PW_GRID| Volume element (a.u.^3)  0.7406E-01     Volume (a.u.^3)      6748.3346
 PW_GRID| Grid span                                                    FULLSPACE
 PW_GRID|   Distribution                         Average         Max         Min
 PW_GRID|   G-Vectors                             1423.8        1485        1395
 PW_GRID|   G-Rays                                  31.6          33          31
 PW_GRID|   Real Space Points                     1423.8        1620        1125

 PW_GRID| Information for grid number                                          6
 PW_GRID| Number of the reference grid                                         2
 PW_GRID| Grid distributed over                                    64 processors
 PW_GRID| Real space group dimensions                                     8    8
 PW_GRID| the grid is blocked:                                                NO
 PW_GRID| Cutoff [a.u.]                                                      7.4
 PW_GRID| spherical cutoff:                                                   NO
 PW_GRID|   Bounds   1            -12      11                Points:          24
 PW_GRID|   Bounds   2            -12      11                Points:          24
 PW_GRID|   Bounds   3            -12      11                Points:          24
 PW_GRID| Volume element (a.u.^3)  0.4882         Volume (a.u.^3)      6748.3346
 PW_GRID| Grid span                                                    FULLSPACE
 PW_GRID|   Distribution                         Average         Max         Min
 PW_GRID|   G-Vectors                              216.0         240         192
 PW_GRID|   G-Rays                                   9.0          10           8
 PW_GRID|   Real Space Points                      216.0         216         216

 POISSON| Solver                                          Martyna-Tuckerman (MT)
 POISSON| MT| Alpha                                                        7.000
 POISSON| MT| Relative cutoff                                                2.0
 POISSON| Periodicity                                                       NONE

 RS_GRID| Information for grid number                                          2
 RS_GRID|   Bounds   1           -108     107                Points:         216
 RS_GRID|   Bounds   2           -108     107                Points:         216
 RS_GRID|   Bounds   3           -108     107                Points:         216
 RS_GRID| Real space distribution over                                  8 groups
 RS_GRID| Real space distribution along direction                              2
 RS_GRID| Border size                                                         44
 RS_GRID| Real space distribution over                                  8 groups
 RS_GRID| Real space distribution along direction                              3
 RS_GRID| Border size                                                         44
 RS_GRID|   Distribution                         Average         Max         Min
 RS_GRID|   Planes                                 115.0         115         115
 RS_GRID|   Distribution                         Average         Max         Min
 RS_GRID|   Planes                                 115.0         115         115

 RS_GRID| Information for grid number                                          3
 RS_GRID|   Bounds   1            -62      62                Points:         125
 RS_GRID|   Bounds   2            -62      62                Points:         125
 RS_GRID|   Bounds   3            -62      62                Points:         125
 RS_GRID| Real space distribution over                                  8 groups
 RS_GRID| Real space distribution along direction                              2
 RS_GRID| Border size                                                         35
 RS_GRID| Real space distribution over                                  8 groups
 RS_GRID| Real space distribution along direction                              3
 RS_GRID| Border size                                                         35
 RS_GRID|   Distribution                         Average         Max         Min
 RS_GRID|   Planes                                  85.6          86          85
 RS_GRID|   Distribution                         Average         Max         Min
 RS_GRID|   Planes                                  85.6          86          85

 RS_GRID| Information for grid number                                          4
 RS_GRID|   Bounds   1            -36      35                Points:          72
 RS_GRID|   Bounds   2            -36      35                Points:          72
 RS_GRID|   Bounds   3            -36      35                Points:          72
 RS_GRID| Real space fully replicated
 RS_GRID| Group size                                                           1

 RS_GRID| Information for grid number                                          5
 RS_GRID|   Bounds   1            -22      22                Points:          45
 RS_GRID|   Bounds   2            -22      22                Points:          45
 RS_GRID|   Bounds   3            -22      22                Points:          45
 RS_GRID| Real space fully replicated
 RS_GRID| Group size                                                           1

 RS_GRID| Information for grid number                                          6
 RS_GRID|   Bounds   1            -12      11                Points:          24
 RS_GRID|   Bounds   2            -12      11                Points:          24
 RS_GRID|   Bounds   3            -12      11                Points:          24
 RS_GRID| Real space fully replicated
 RS_GRID| Group size                                                           1

  HFX_INFO| Replica ID:                                                        1
  HFX_INFO| FRACTION:                                               0.2500000000
  HFX_INFO| Interaction Potential:                                       COULOMB
  HFX_INFO| EPS_SCHWARZ:                                                 1.0E-10
  HFX_INFO| EPS_SCHWARZ_FORCES                                           1.0E-06
  HFX_INFO| EPS_STORAGE_SCALING:                                         1.0E+00
  HFX_INFO| NBINS:                                                            64
  HFX_INFO| BLOCK_SIZE:                                                        1
  HFX_INFO| Number of periodic shells considered:                           NONE
  HFX_INFO| Number of periodic cells considered:                            NONE


 Number of electrons:                                                         86
 Number of occupied orbitals:                                                 43
 Number of molecular orbitals:                                                43

 Number of orbital functions:                                                368
 Number of independent orbital functions:                                    368

 Extrapolation method: initial_guess

 *** WARNING in qs_initial_guess.F:305 :: User requested to restart the    ***
 *** wavefunction from the file named: bithiophen_less-RESTART.wfn. This   ***
 *** file does not exist. Please check the existence of the file or change ***
 *** properly the value of the keyword WFN_RESTART_FILE_NAME. Calculation  ***
 *** continues using ATOMIC GUESS.                                         ***


 Atomic guess: The first density matrix is obtained in terms of atomic orbitals
               and electronic configurations assigned to each atomic kind

 Guess for atomic kind: S

 Electronic structure
    Total number of core electrons                                          0.00
    Total number of valence electrons                                      16.00
    Total number of electrons                                              16.00
    Multiplicity                                                   not specified
    S      2.00  2.00  2.00
    P      6.00  4.00
 

 *******************************************************************************
                  Iteration          Convergence                     Energy [au]
 *******************************************************************************
                          1        0.760414                    -396.660763946116
                          2        0.373960                    -396.680042640535
                          3        0.415326E-01                -396.691447966171
                          4        0.304933E-02                -396.692099573711
                          5        0.573628E-05                -396.692102327498
                          6        0.168908E-06                -396.692102327503

 Energy components [Hartree]           Total Energy ::         -396.692102327503
                                        Band Energy ::         -227.690891250390
                                     Kinetic Energy ::          397.012572018448
                                   Potential Energy ::         -793.704674345952
                                      Virial (-V/T) ::            1.999192797121
                                        Core Energy ::         -549.302400255813
                                          XC Energy ::          -24.165303573778
                                     Coulomb Energy ::          176.775601502087

 Orbital energies  State     L     Occupation   Energy[a.u.]          Energy[eV]

                       1     0          2.000     -87.767620        -2388.278395
                       2     0          2.000      -7.693639         -209.354567
                       3     0          2.000      -0.628115          -17.091880
 
                       1     1          6.000      -5.745939         -156.354953
                       2     1          4.000      -0.259127           -7.051209
 

 Total Electron Density at R=0:                                      2572.846298

 Guess for atomic kind: C

 Electronic structure
    Total number of core electrons                                          0.00
    Total number of valence electrons                                       6.00
    Total number of electrons                                               6.00
    Multiplicity                                                   not specified
    S      2.00  2.00
    P      2.00
 

 *******************************************************************************
                  Iteration          Convergence                     Energy [au]
 *******************************************************************************
                          1        0.147208                     -37.407693601264
                          2        0.119028                     -37.412727810384
                          3        0.151591E-02                 -37.421609589284
                          4        0.252468E-03                 -37.421611675915
                          5        0.320487E-05                 -37.421611714904
                          6        0.162446E-06                 -37.421611714918

 Energy components [Hartree]           Total Energy ::          -37.421611714918
                                        Band Energy ::          -21.277675770449
                                     Kinetic Energy ::           37.196286588355
                                   Potential Energy ::          -74.617898303274
                                      Virial (-V/T) ::            2.006057731758
                                        Core Energy ::          -50.332032480142
                                          XC Energy ::           -4.732819490143
                                     Coulomb Energy ::           17.643240255367

 Orbital energies  State     L     Occupation   Energy[a.u.]          Energy[eV]

                       1     0          2.000      -9.943251         -270.569607
                       2     0          2.000      -0.498684          -13.569893
 
                       1     1          2.000      -0.196903           -5.358002
 

 Total Electron Density at R=0:                                       121.622713

 Guess for atomic kind: H

 Electronic structure
    Total number of core electrons                                          0.00
    Total number of valence electrons                                       1.00
    Total number of electrons                                               1.00
    Multiplicity                                                   not specified
    S      1.00
 

 *******************************************************************************
                  Iteration          Convergence                     Energy [au]
 *******************************************************************************
                          1        0.917598E-02                  -0.444895232610
                          2        0.101733E-02                  -0.444969959338
                          3        0.739292E-04                  -0.444971980690
                          4        0.601377E-07                  -0.444971989573

 Energy components [Hartree]           Total Energy ::           -0.444971989573
                                        Band Energy ::           -0.230448725171
                                     Kinetic Energy ::            0.428990089350
                                   Potential Energy ::           -0.873962078923
                                      Virial (-V/T) ::            2.037254707321
                                        Core Energy ::           -0.496265746842
                                          XC Energy ::           -0.234272986041
                                     Coulomb Energy ::            0.285566743311

 Orbital energies  State     L     Occupation   Energy[a.u.]          Energy[eV]

                       1     0          1.000      -0.230449           -6.270829
 

 Total Electron Density at R=0:                                         0.247098
 Re-scaling the density matrix to get the right number of electrons
                  # Electrons              Trace(P)               Scaling factor
                           86                86.000                        1.000


 SCF WAVEFUNCTION OPTIMIZATION

  ----------------------------------- OT ---------------------------------------
  Minimizer      : DIIS                : direct inversion
                                         in the iterative subspace
                                         using   7 DIIS vectors
                                         safer DIIS on
  Preconditioner : FULL_ALL            : diagonalization, state selective
  Precond_solver : DEFAULT
  stepsize       :    0.15000000                  energy_gap     :    0.08000000
  eps_taylor     :   0.10000E-15                  max_taylor     :             4
  ----------------------------------- OT ---------------------------------------

  Step     Update method      Time    Convergence         Total energy    Change
  ------------------------------------------------------------------------------

  HFX_MEM_INFO| Est. max. program size before HFX [MiB]:                     638
  HFX_MEM_INFO| Number of cart. primitive ERI's calculated:           9148233326
  HFX_MEM_INFO| Number of sph. ERI's calculated:                      2025693341
  HFX_MEM_INFO| Number of sph. ERI's stored in-core:                  2025693341
  HFX_MEM_INFO| Number of sph. ERI's stored on disk:                           0
  HFX_MEM_INFO| Number of sph. ERI's calculated on the fly:                    0
  HFX_MEM_INFO| Total memory consumption ERI's RAM [MiB]:                   5262
  HFX_MEM_INFO| Whereof max-vals [MiB]:                                       17
  HFX_MEM_INFO| Total compression factor ERI's RAM:                         2.94
  HFX_MEM_INFO| Total memory consumption ERI's disk [MiB]:                     0
  HFX_MEM_INFO| Total compression factor ERI's disk:                        0.00
  HFX_MEM_INFO| Size of density/Fock matrix [MiB]:                             0
  HFX_MEM_INFO| Size of buffers [MiB]:                                         1
  HFX_MEM_INFO| Est. max. program size after HFX  [MiB]:                    1082

     1 OT DIIS     0.15E+00   16.2     0.15676052     -1054.8786174133 -1.05E+03
     2 OT DIIS     0.15E+00    3.3     0.05456232     -1094.8853206510 -4.00E+01
     3 OT DIIS     0.15E+00    2.9     0.02113036     -1099.6832077673 -4.80E+00
     4 OT DIIS     0.15E+00    2.7     0.01284350     -1100.2775738018 -5.94E-01
     5 OT DIIS     0.15E+00    2.6     0.00998842     -1100.8687056156 -5.91E-01
     6 OT DIIS     0.15E+00    2.4     0.00822678     -1101.4300902868 -5.61E-01
     7 OT DIIS     0.15E+00    2.3     0.00652698     -1102.0854799518 -6.55E-01
     8 OT DIIS     0.15E+00    2.3     0.00527463     -1102.5875365000 -5.02E-01
     9 OT DIIS     0.15E+00    2.2     0.00454782     -1102.8990345291 -3.11E-01
    10 OT DIIS     0.15E+00    2.0     0.00390985     -1103.1919881444 -2.93E-01
    11 OT DIIS     0.15E+00    1.9     0.00355420     -1103.3684127339 -1.76E-01
    12 OT DIIS     0.15E+00    1.9     0.00302964     -1103.6046101933 -2.36E-01
    13 OT DIIS     0.15E+00    2.0     0.00271107     -1103.7464814152 -1.42E-01
    14 OT DIIS     0.15E+00    1.8     0.00259510     -1103.8052039804 -5.87E-02
    15 OT DIIS     0.15E+00    1.6     0.00225873     -1103.9254042426 -1.20E-01
    16 OT DIIS     0.15E+00    1.6     0.00197863     -1104.0038171725 -7.84E-02
    17 OT DIIS     0.15E+00    1.8     0.00172672     -1104.0703100336 -6.65E-02
    18 OT DIIS     0.15E+00    1.8     0.00163265     -1104.1126805117 -4.24E-02
    19 OT DIIS     0.15E+00    1.8     0.00146585     -1104.1514503854 -3.88E-02
    20 OT DIIS     0.15E+00    1.9     0.00133419     -1104.1786454547 -2.72E-02

  Leaving inner SCF loop after reaching    20 steps.


  Electronic density on regular grids:        -55.2214703806       30.7785296194
  Core density on regular grids:               86.0000000000       -0.0000000000
  Hard and soft densities (Lebedev):         -113.1970857674      -82.4185660783
  Total Rho_soft + Rho1_hard - Rho1_soft      -85.9999900697
  Total charge density (r-space):               0.0000099303
  Total Rho_soft + Rho0_soft (g-space):         0.0000100403

  Overlap energy of the core charge distribution:               0.00001741462307
  Self energy of the core charge distribution:               -585.25180096330610
  Core Hamiltonian energy:                                   -512.16167083046037
  Hartree energy:                                             178.73605530249475
  Exchange-correlation energy:                                -19.18477076345371
  Hartree-Fock Exchange energy:                               -23.41529679469617

  GAPW| Exc from hard and soft atomic rho1:                   -53.85826802442240
  GAPW| local Eh = 1 center integrals:                        -89.04291079543259

  Total energy:                                             -1104.17864545465341

  outer SCF iter =    1 RMS gradient =   0.13E-02 energy =      -1104.1786454547

  ----------------------------------- OT ---------------------------------------
  Minimizer      : DIIS                : direct inversion
                                         in the iterative subspace
                                         using   7 DIIS vectors
                                         safer DIIS on
  Preconditioner : FULL_ALL            : diagonalization, state selective
  Precond_solver : DEFAULT
  stepsize       :    0.15000000                  energy_gap     :    0.08000000
  eps_taylor     :   0.10000E-15                  max_taylor     :             4
  ----------------------------------- OT ---------------------------------------

  Step     Update method      Time    Convergence         Total energy    Change
  ------------------------------------------------------------------------------
     1 OT DIIS     0.15E+00    4.3     0.00612205     -1104.2094891819 -3.08E-02
     2 OT DIIS     0.15E+00    1.9     0.00289656     -1104.2720761435 -6.26E-02
     3 OT DIIS     0.15E+00    2.0     0.00166747     -1104.2856876584 -1.36E-02
     4 OT DIIS     0.15E+00    2.0     0.00036904     -1104.2878564850 -2.17E-03
     5 OT DIIS     0.15E+00    2.0     0.00015163     -1104.2879610998 -1.05E-04
     6 OT DIIS     0.15E+00    1.7     0.00005631     -1104.2879874606 -2.64E-05
     7 OT DIIS     0.15E+00    1.7     0.00002661     -1104.2879921516 -4.69E-06
     8 OT DIIS     0.15E+00    1.6     0.00000565     -1104.2879930718 -9.20E-07
     9 OT DIIS     0.15E+00    1.7     0.00000240     -1104.2879931146 -4.28E-08
    10 OT DIIS     0.15E+00    1.8     0.00000081     -1104.2879931194 -4.79E-09
    11 OT DIIS     0.15E+00    1.7     0.00000024     -1104.2879931197 -3.07E-10
    12 OT DIIS     0.15E+00    1.6     0.00000010     -1104.2879931190  7.32E-10

  *** SCF run converged in    12 steps ***


  Electronic density on regular grids:        -55.2191843472       30.7808156528
  Core density on regular grids:               86.0000000000       -0.0000000000
  Hard and soft densities (Lebedev):         -111.9183064112      -81.1375018350
  Total Rho_soft + Rho1_hard - Rho1_soft      -85.9999889234
  Total charge density (r-space):               0.0000110766
  Total Rho_soft + Rho0_soft (g-space):         0.0000111865

  Overlap energy of the core charge distribution:               0.00001741462307
  Self energy of the core charge distribution:               -585.25180096330610
  Core Hamiltonian energy:                                   -512.31835752157758
  Hartree energy:                                             178.78796065974575
  Exchange-correlation energy:                                -19.17622378954271
  Hartree-Fock Exchange energy:                               -23.41750039689139

  GAPW| Exc from hard and soft atomic rho1:                   -53.85525669974111
  GAPW| local Eh = 1 center integrals:                        -89.05683182228485

  Total energy:                                             -1104.28799311897478

  outer SCF iter =    2 RMS gradient =   0.95E-07 energy =      -1104.2879931190
  outer SCF loop converged in   2 iterations or   32 steps


 !-----------------------------------------------------------------------------!
                     Mulliken Population Analysis

 #  Atom  Element  Kind  Atomic population                           Net charge
       1     S        1         15.944869                              0.055131
       2     C        2          5.971482                              0.028518
       3     C        2          6.208181                             -0.208181
       4     C        2          6.173040                             -0.173040
       5     C        2          6.149787                             -0.149787
       6     C        2          5.971483                              0.028517
       7     C        2          6.208181                             -0.208181
       8     C        2          6.173041                             -0.173041
       9     C        2          6.149786                             -0.149786
      10     S        1         15.944869                              0.055131
      11     H        3          0.847677                              0.152323
      12     H        3          0.847677                              0.152323
      13     H        3          0.871166                              0.128834
      14     H        3          0.833798                              0.166202
      15     H        3          0.833798                              0.166202
      16     H        3          0.871166                              0.128834
 # Total charge                             86.000000                  0.000000

 !-----------------------------------------------------------------------------!

 !-----------------------------------------------------------------------------!
                           Hirshfeld Charges

  #Atom  Element  Kind  Ref Charge     Population                    Net charge
      1       S      1      16.000         16.685                        -0.685
      2       C      2       6.000          5.736                         0.264
      3       C      2       6.000          6.441                        -0.441
      4       C      2       6.000          6.473                        -0.473
      5       C      2       6.000          6.165                        -0.165
      6       C      2       6.000          5.736                         0.264
      7       C      2       6.000          6.441                        -0.441
      8       C      2       6.000          6.473                        -0.473
      9       C      2       6.000          6.165                        -0.165
     10       S      1      16.000         16.685                        -0.685
     11       H      3       1.000          0.494                         0.506
     12       H      3       1.000          0.494                         0.506
     13       H      3       1.000          0.503                         0.497
     14       H      3       1.000          0.498                         0.502
     15       H      3       1.000          0.498                         0.502
     16       H      3       1.000          0.503                         0.497

  Total Charge                                                            0.007
 !-----------------------------------------------------------------------------!

 *******************************************************************************
 **                                                                           **
 **         ######## #######   #######   ######## #######  ########           **
 **            ##    ##     ## ##     ## ##       ##   ##     ##              **
 **            ##    ##     ## ##     ## ######   #######     ##              **
 **            ##    ##     ## ##     ## ##       ##          ##              **
 **            ##    #######   #######   ##       ##          ##              **
 **                                                                           **
 *******************************************************************************
 KERNEL|                                                                    FULL
 FUNCTIONAL| PBE:
 FUNCTIONAL| J.P.Perdew, K.Burke, M.Ernzerhof, Phys. Rev. Letter, vol. 77, n 18,
 FUNCTIONAL|  pp. 3865-3868, (1996)sx=0.750sc=1.000{spin unpolarized}           
 KERNEL|                                                          Exact Exchange
 KERNEL| Spin symmetry of excitations                                    Triplet
 TDDFPT| Number of states calculated                                          10
 TDDFPT| Number of Davidson iterations                                        20
 TDDFPT| Davidson iteration convergence                                0.100E-07
 TDDFPT| Max. number of Krylov space vectors                                  60
 TDDFPT| Molecular Orbitals:        Spin       AOs       Occ      Virt     Total
 TDDFPT|                               1       368        43       325       368

 *******************************************************************************
 **                                                                           **
 **                            ####### ####### #######                        **
 **                        #   ##      ##   ## ##                             **
 **                       ###  ######  ##   ## ##                             **
 **                        #       ##  ##   ## ##                             **
 **                            ######  ####### #######                        **
 **                 Based on the xas module from Augustin Bussy               **
 *******************************************************************************
 
 -------------------------------------------------------------------------------
 -                      TDDFPT TRIPLET ENERGIES                                 -
 -------------------------------------------------------------------------------
 
 -------------------------------------------------------------------------------
 -                            TDDFPT Initial Guess                             -
 -------------------------------------------------------------------------------
          State         Occupied      ->      Virtual          Excitation
          number         orbital              orbital          energy (eV)
 -------------------------------------------------------------------------------
             1               43                   44              4.81544
             2               42                   44              6.00796
             3               41                   44              6.11174
             4               43                   45              6.23845
             5               40                   44              6.62346
             6               43                   46              6.67056
             7               43                   47              6.74234
             8               42                   45              7.43098
             9               43                   48              7.50445
            10               41                   45              7.53476

      Number of active states:                                      13975
 -------------------------------------------------------------------------------
 
 -------------------------------------------------------------------------------
 -                      TDDFPT WAVEFUNCTION OPTIMIZATION                       -
 -------------------------------------------------------------------------------

          Step            Time         Convergence           Conv. states
 -------------------------------------------------------------------------------

    State    Exc. energy (eV)      Convergence (eV)
        1       3.0986021            -1.7168E+00
        2       4.1982788            -1.8097E+00
        3       4.3195284            -1.7922E+00
[...]
 flops    42 x    11 x    42            158103792       0.0%    100.0%      0.0%
 flops    31 x    11 x     6            186398784       0.0%    100.0%      0.0%
 flops     6 x    11 x    31            186398784       0.0%    100.0%      0.0%
 flops    42 x    32 x     6            189471744       0.0%    100.0%      0.0%
 flops     6 x    32 x    42            191665152       0.0%    100.0%      0.0%
 flops    31 x    42 x    32            208653312       0.0%    100.0%      0.0%
 flops    42 x    31 x    32            208653312       0.0%    100.0%      0.0%
 flops    31 x    31 x    11            238228056       0.0%    100.0%      0.0%
 flops    42 x    43 x    31            250817280       0.0%    100.0%      0.0%
 flops    31 x    43 x    42            250817280       0.0%    100.0%      0.0%
 flops    43 x    43 x     6            266256000       0.0%    100.0%      0.0%
 flops    42 x    11 x    31            434930496       0.0%    100.0%      0.0%
 flops    31 x    11 x    42            450512832       0.0%    100.0%      0.0%
 flops    42 x    32 x    42            473485824       0.0%    100.0%      0.0%
 flops    31 x    32 x     6            559392768       0.0%    100.0%      0.0%
 flops     6 x    32 x    31            559392768       0.0%    100.0%      0.0%
 flops    43 x    43 x    42            621264000       0.0%    100.0%      0.0%
 flops    31 x    31 x    32            693027072       0.0%    100.0%      0.0%
 flops    31 x    43 x    31            780178240       0.0%    100.0%      0.0%
 flops    31 x    11 x    31           1284587920       0.0%    100.0%      0.0%
 flops    42 x    32 x    31           1305249792       0.0%    100.0%      0.0%
 flops    31 x    32 x    42           1350580224       0.0%    100.0%      0.0%
 flops    43 x    43 x    31           1834208000       0.0%    100.0%      0.0%
 flops    31 x    32 x    31           3855070720       0.0%    100.0%      0.0%
 flops inhomo. stacks                   358374384     100.0%      0.0%      0.0%
 flops total                        18.971368E+09       1.9%     98.1%      0.0%
 flops max/rank                      1.696944E+09       3.3%     96.7%      0.0%
 matmuls inhomo. stacks                      4032     100.0%      0.0%      0.0%
 matmuls total                             673808       0.6%     99.4%      0.0%
 number of processed stacks                436970       0.9%     99.1%      0.0%
 average stack size                                     1.0       1.5       0.0
 marketing flops                    21.284143E+09
 -------------------------------------------------------------------------------
 # multiplications                           1946
 max memory usage/rank               1.350709E+09
 # max total images/rank                        1
 # max 3D layers                                1
 # MPI messages exchanged                 1743616
 MPI messages size (bytes):
  total size                        10.305530E+09
  min size                           0.000000E+00
  max size                          42.656000E+03
  average size                       5.910436E+03
 MPI breakdown and total messages size (bytes):
             size <=      128             1000076                        0
       128 < size <=     8192              135898                543647328
      8192 < size <=    32768              605962               9690220176
     32768 < size <=   131072                1680                 71662080
    131072 < size <=  4194304                   0                        0
   4194304 < size <= 16777216                   0                        0
  16777216 < size                               0                        0
 -------------------------------------------------------------------------------
 -                                                                             -
 -                      DBCSR MESSAGE PASSING PERFORMANCE                      -
 -                                                                             -
 -------------------------------------------------------------------------------
 ROUTINE             CALLS      AVE VOLUME [Bytes]
 MP_Bcast              142                     12.
 MP_Allreduce         8768                      9.
 MP_Alltoall         29182                  11989.
 MP_ISend            62264                   3802.
 MP_IRecv            62264                   3794.
 -------------------------------------------------------------------------------

 -------------------------------------------------------------------------------
 -                                                                             -
 -                                DBM STATISTICS                               -
 -                                                                             -
 -------------------------------------------------------------------------------
    M  x    N  x    K                                          COUNT     PERCENT
 -------------------------------------------------------------------------------

 -------------------------------------------------------------------------------
 -                                                                             -
 -                                GRID STATISTICS                              -
 -                                                                             -
 -------------------------------------------------------------------------------
 LP    KERNEL             BACKEND                              COUNT     PERCENT
 1     collocate ortho    CPU                                 483700      13.38%
 1     integrate ortho    CPU                                 475408      13.15%
 2     collocate ortho    CPU                                 413875      11.44%
 2     integrate ortho    CPU                                 406780      11.25%
 0     collocate ortho    CPU                                 329875       9.12%
 0     integrate ortho    CPU                                 324220       8.97%
 3     collocate ortho    CPU                                 280000       7.74%
 3     integrate ortho    CPU                                 275200       7.61%
 2     collocate general  CPU                                 178176       4.93%
 4     collocate ortho    CPU                                 123550       3.42%
 4     integrate ortho    CPU                                 121432       3.36%
 2     integrate general  CPU                                 104448       2.89%
 5     collocate ortho    CPU                                  40250       1.11%
 5     integrate ortho    CPU                                  39560       1.09%
 6     collocate ortho    CPU                                   8925       0.25%
 6     integrate ortho    CPU                                   8772       0.24%
 0     collocate general  CPU                                   1024       0.03%
 0     integrate general  CPU                                   1024       0.03%
 -------------------------------------------------------------------------------

 MEMORY| Estimated peak process memory [MiB]                                1289

 -------------------------------------------------------------------------------
 ----                             MULTIGRID INFO                            ----
 -------------------------------------------------------------------------------
 count for grid        1:         681922          cutoff [a.u.]          600.00
 count for grid        2:          98017          cutoff [a.u.]          200.00
 count for grid        3:         107914          cutoff [a.u.]           66.67
 count for grid        4:          37418          cutoff [a.u.]           22.22
 count for grid        5:           1600          cutoff [a.u.]            7.41
 total gridlevel count  :         926871

 -------------------------------------------------------------------------------
 -                                                                             -
 -                         MESSAGE PASSING PERFORMANCE                         -
 -                                                                             -
 -------------------------------------------------------------------------------

 ROUTINE             CALLS      AVE VOLUME [Bytes]
 MP_Group                6
 MP_Bcast             7820                 668099.
 MP_Allreduce        17074                  23763.
 MP_Sync              1661
 MP_Alltoall          4672                4755493.
 MP_SendRecv         33075                  32544.
 MP_ISendRecv        71946                  27311.
 MP_Wait            150232
 MP_comm_split          93
 MP_ISend            71372                 234596.
 MP_IRecv            72732                 230056.
 -------------------------------------------------------------------------------


 -------------------------------------------------------------------------------
 -                                                                             -
 -                           R E F E R E N C E S                               -
 -                                                                             -
 -------------------------------------------------------------------------------
 
 CP2K version 2023.1 (Development Version), the CP2K developers group (2023).
 CP2K is freely available from https://www.cp2k.org/ .

 Kuehne,Thomas D.; Iannuzzi,Marcella; Del Ben,Mauro;
 Rybkin,Vladimir V.; Seewald,Patrick; Stein,Frederick; Laino,Teodoro;
 Khaliullin,Rustam Z.; Schuett,Ole; Schiffmann,Florian; Golze,Dorothea;
 Wilhelm,Jan; Chulkov,Sergey; Bani-Hashemian,Mohammad Hossein;
 Weber,Valery; Borstnik,Urban; Taillefumier,Mathieu;
 Jakobovits,Alice Shoshana; Lazzaro,Alfio; Pabst,Hans; Mueller,Tiziano;
 Schade,Robert; Guidon,Manuel; Andermatt,Samuel; Holmberg,Nico;
 Schenter,Gregory K.; Hehn,Anna; Bussy,Augustin; Belleflamme,Fabian;
 Tabacchi,Gloria; Gloess,Andreas; Lass,Michael; Bethune,Iain;
 Mundy,Christopher J.; Plessl,Christian; Watkins,Matt;
 VandeVondele,Joost; Krack,Matthias; Hutter,Juerg. 
 The Journal of Chemical Physics, 152 (19), (2020). 
 CP2K: An electronic structure and molecular dynamics software package -
 Quickstep: Efficient and accurate electronic structure calculations.
 https://doi.org/10.1063/5.0007045

 Schuett, Ole; Messmer, Peter; Hutter, Juerg; VandeVondele, Joost. 
 Electronic Structure Calculations on Graphics Processing Units, John
 Wiley & Sons, Ltd, 173-190 (2016). 
 GPU-Accelerated Sparse Matrix-Matrix Multiplication for
 Linear Scaling Density Functional Theory.
 https://doi.org/10.1002/9781118670712.ch8

 Heinecke, A; Henry, G; Hutchinson, M; Pabst, H. 
 Proceedings of Intl. Supercomputing Conference, 981-991 (2016). 
 LIBXSMM: Accelerating Small Matrix Multiplications
 by Runtime Code Generation.
 https://doi.org/10.1109/SC.2016.83

 Borstnik, U; VandeVondele, J; Weber, V; Hutter, J. 
 PARALLEL COMPUTING, 40 (5-6), 47-58 (2014). 
 Sparse matrix multiplication: The distributed block-compressed sparse
 row library.
 https://doi.org/10.1016/j.parco.2014.03.012

 Hutter, J; Iannuzzi, M; Schiffmann, F; VandeVondele, J. 
 WIREs Comput Mol Sci., 4 (1), 15-25 (2014). 
 CP2K: atomistic simulations of condensed matter systems.
 https://doi.org/10.1002/wcms.1159

 Guidon, M; Hutter, J; VandeVondele, J. 
 JOURNAL OF CHEMICAL THEORY AND COMPUTATION, 5 (11), 3010-3021 (2009). 
 Robust Periodic Hartree-Fock Exchange for Large-Scale Simulations Using
 Gaussian Basis Sets.
 https://doi.org/10.1021/ct900494g

 Guidon, M; Schiffmann, F; Hutter, J; VandeVondele, J. 
 JOURNAL OF CHEMICAL PHYSICS, 128 (21), 214104 (2008). 
 Ab initio molecular dynamics using hybrid density functionals.
 https://doi.org/10.1063/1.2931945

 Frigo, M; Johnson, SG. 
 PROCEEDINGS OF THE IEEE, 93 (2), 216-231 (2005). 
 The design and implementation of FFTW3.
 https://doi.org/10.1109/JPROC.2004.840301

 Iannuzzi, M; Chassaing, T; Wallman, T; Hutter, J. 
 CHIMIA, 59 (7-8), 499-503 (2005). 
 Ground and excited state density functional calculations with the
 Gaussian and augmented-plane-wave method.
 https://doi.org/10.2533/000942905777676164

 VandeVondele, J; Hutter, J. 
 JOURNAL OF CHEMICAL PHYSICS, 118 (10), 4365-4369 (2003). 
 An efficient orbital transformation method for electronic structure
 calculations.
 https://doi.org/10.1063/1.1543154

 Martin,Richard L.. 
 The Journal of Chemical Physics, 118 (11), 4775-4777 (2003). 
 Natural transition orbitals.
 https://doi.org/10.1063/1.1558471

 Lippert, G; Hutter, J; Parrinello, M. 
 THEORETICAL CHEMISTRY ACCOUNTS, 103 (2), 124-140 (1999). 
 The Gaussian and augmented-plane-wave density functional method for ab
 initio molecular dynamics simulations.
 https://doi.org/10.1007/s002140050523

 Krack, M; Parrinello, M. 
 PHYSICAL CHEMISTRY CHEMICAL PHYSICS, 2 (10), 2105-2112 (2000). 
 All-electron ab-initio molecular dynamics.
 https://doi.org/10.1039/b001167n

 Martyna, GJ; Tuckerman, ME. 
 JOURNAL OF CHEMICAL PHYSICS, 110 (6), 2810-2821 (1999). 
 A reciprocal space based method for treating long range interactions in
 ab initio and force-field-based calculations in clusters.
 https://doi.org/10.1063/1.477923

 Perdew, JP; Burke, K; Ernzerhof, M. 
 PHYSICAL REVIEW LETTERS, 77 (18), 3865-3868 (1996). 
 Generalized gradient approximation made simple.
 https://doi.org/10.1103/PhysRevLett.77.3865


 -------------------------------------------------------------------------------
 -                                                                             -
 -                                T I M I N G                                  -
 -                                                                             -
 -------------------------------------------------------------------------------
 SUBROUTINE                       CALLS  ASD         SELF TIME        TOTAL TIME
                                MAXIMUM       AVERAGE  MAXIMUM  AVERAGE  MAXIMUM
 CP2K                                 1  1.0    0.119    0.142  308.026  308.029
 qs_energies                          1  2.0    0.000    0.001  306.370  306.372
 qs_energies_properties               1  3.0    0.000    0.000  225.030  225.031
 tddfpt                               1  4.0    0.000    0.000  225.030  225.031
 tddfpt_energies                      3  5.7    0.000    0.000  224.263  224.271
 tddfpt_davidson_solver               4  7.0    0.001    0.001  218.032  218.033
 tddfpt_compute_Aop_evects           14  8.0    0.000    0.000  216.421  216.423
 fhxc_kernel                         14  9.0    0.004    0.005  121.335  121.335
 integrate_four_center              312 10.8    2.791    3.880  116.495  116.530
 integrate_four_center_main         312 11.8    0.041    0.072   81.553   94.553
 integrate_four_center_bin        31684 12.8   81.512   94.523   81.512   94.523
 tddfpt_apply_hfx                    14  9.0    0.002    0.002   94.196   94.197
 tddft_hfx_matrix                   280 10.0    0.003    0.004   91.925   91.958
 scf_env_do_scf                       1  3.0    0.000    0.000   79.268   79.268
 rs_pw_transfer                    2013 11.8    0.012    0.018   73.962   76.499
 scf_env_do_scf_inner_loop           32  4.0    0.001    0.001   62.074   62.089
 qs_ks_update_qs_env                 34  5.0    0.000    0.000   59.556   59.662
 rebuild_ks_matrix                   32  6.0    0.000    0.000   59.553   59.659
 qs_ks_build_kohn_sham_matrix        32  7.0    0.004    0.006   59.553   59.659
 mp_waitany                       71372 13.8   47.393   51.942   47.393   51.942
 integrate_v_rspace                 172  9.8    0.004    0.007   41.483   42.762
 qs_rho_update_rho_low              175  9.0    0.002    0.004   41.153   41.455
 potential_pw2rs                    172 10.8    0.011    0.012   38.800   39.811
 pw_transfer                       3991 12.1    0.237    0.293   38.027   39.741
 calculate_rho_elec                 175 10.0    0.610    0.760   39.388   39.692
 fft_wrap_pw1pw2                   3613 13.2    0.016    0.024   37.715   39.410
 fft_wrap_pw1pw2_600               2224 14.3    0.730    0.845   36.292   38.017
 fft3d_ps                          3613 15.2   14.716   17.183   35.264   36.969
 density_rs2pw                      175 11.0    0.005    0.006   34.414   36.362
 mp_waitall_1                    233180 14.5   21.839   26.517   21.839   26.517
 prepare_gapw_den                   174  9.6    0.002    0.004   25.675   25.780
 hfx_ks_matrix                       32  8.0    0.001    0.001   24.576   24.584
 rs_pw_transfer_RS2PW_600           350 12.8    2.153    2.339   20.105   23.224
 mp_alltoall_z22v                  3613 17.2   19.744   22.749   19.744   22.749
 mp_sync                           1661 12.5   13.464   22.330   13.464   22.330
 tddfpt_apply_xc_analytic           140 10.0    0.139    0.168   21.678   21.878
 xc_pw_derive                      1251 11.7    0.005    0.006   18.743   19.715
 rs_pw_transfer_PW2RS_600           275 12.5    1.823    1.932   17.094   17.835
 init_scf_loop                        2  4.0    0.000    0.000   17.184   17.185
 mp_sum_d                          2534  9.7   12.719   16.565   12.719   16.565
 yz_to_x                           1391 16.5    0.288    0.349   13.922   16.385
 rs_pw_transfer_RS2PW_200           175 13.0    0.313    0.357   14.409   15.980
 dbcsr_multiply_generic            1946 10.9    0.042    0.047   14.692   15.677
 calculate_xc_2nd_deriv_atom        140 10.0    0.607    3.953    1.804   15.524
 tddfpt_apply_coulomb                70 10.0    0.001    0.001   14.505   15.505
 put_rho0_on_grid                   174 10.6    0.755    1.035   15.323   15.427
 rs_pw_transfer_PW2RS_200           172 12.8    0.266    0.311   11.988   13.209
 integrate_vhg0_rspace              102 10.1    0.309    0.386   12.734   13.043
 gaVxcgb_GC                         344 10.6    1.301   12.948    1.301   12.948
 xc_calc_2nd_deriv_analytical       700 11.3    3.688    4.572   12.568   12.714
 multiply_cannon                   1946 11.9    0.089    0.095    9.870   12.306
 xc_pw_divergence                   172 11.6    0.002    0.002   10.700   11.589
 sum_up_and_integrate                32  8.0    0.029    0.033   10.004   10.065
 pw_poisson_solve                   102 10.1    0.052    0.056    7.717    8.718
 pw_integral_ab                     102 11.1    0.433    0.463    7.379    8.432
 mp_sum_dm                         7349 11.0    7.542    7.871    7.542    7.871
 calculate_rho_atom                 522 10.6    3.069    7.836    3.069    7.836
 cp_dbcsr_sm_fm_multiply            885  9.5    0.010    0.012    7.600    7.643
 qs_scf_new_mos                      32  5.0    0.000    0.000    7.355    7.528
 qs_scf_loop_do_ot                   32  6.0    0.000    0.000    7.355    7.528
 multiply_cannon_loop              1946 12.9    0.046    0.051    4.521    7.094
 qs_vxc_create                       32  8.0    0.000    0.001    7.031    7.033
 xc_vxc_pw_create                    32  9.0    0.150    0.175    7.031    7.033
 ot_scf_mini                         32  7.0    0.000    0.000    6.861    7.017
 x_to_yz                           1528 15.9    0.338    0.460    6.422    6.966
 mp_sum_l                          8176 11.3    5.074    6.358    5.074    6.358
 -------------------------------------------------------------------------------

 The number of warnings for this run is : 1
 
 -------------------------------------------------------------------------------
  **** **** ******  **  PROGRAM ENDED AT                 2023-07-03 10:37:37.573
 ***** ** ***  *** **   PROGRAM RAN ON                                      n100
 **    ****   ******    PROGRAM RAN BY                                  suphc355
 ***** **    ** ** **   PROGRAM PROCESS ID                               1152816
  **** **  *******  **  PROGRAM STOPPED IN /work_beegfs/suphc355/pbe0_bm_final/b
                                           ithiophen/cp2k
