 DBCSR| CPU Multiplication driver                                           XSMM (U)
 DBCSR| Multrec recursion limit                                              512 (U)
 DBCSR| Multiplication stack size                                           1000 (D)
 DBCSR| Maximum elements for images                                    UNLIMITED (U)
 DBCSR| Multiplicative factor virtual images                                   1 (U)
 DBCSR| Use multiplication densification                                       T (D)
 DBCSR| Multiplication size stacks                                             3 (U)
 DBCSR| Use memory pool for CPU allocation                                     F (U)
 DBCSR| Number of 3D layers                                               SINGLE (U)
 DBCSR| Use MPI memory allocation                                              F (U)
 DBCSR| Use RMA algorithm                                                      F (U)
 DBCSR| Use Communication thread                                               T (U)
 DBCSR| Communication thread load                                             87 (D)
 DBCSR| MPI: My process id                                                     0
 DBCSR| MPI: Number of processes                                             128
 DBCSR| OMP: Current number of threads                                         1
 DBCSR| OMP: Max number of threads                                             1
 DBCSR| Split modifier for TAS multiplication algorithm                  1.0E+00 (U)


  **** **** ******  **  PROGRAM STARTED AT               2024-02-01 09:12:09.892
 ***** ** ***  *** **   PROGRAM STARTED ON                           nesh-srp155
 **    ****   ******    PROGRAM STARTED BY                              suphc355
 ***** **    ** ** **   PROGRAM PROCESS ID                                378453
  **** **  *******  **  PROGRAM STARTED IN /gxfs_work/cau/suphc355/homologes/HX/
                                           PP/F

 CP2K| version string:                 CP2K version 2024.1 (Development Version)
 CP2K| source code revision number:                                  git:b6f9133
 CP2K| cp2kflags: omp libint fftw3 libxc libgrpp parallel mpi_f08 scalapack cosm
 CP2K|            a xsmm spglib mkl
 CP2K| is freely available from                            https://www.cp2k.org/
 CP2K| Program compiled at                          Fr 26. Jan 09:14:30 CET 2024
 CP2K| Program compiled on                                           nesh-login3
 CP2K| Program compiled for                                                local
 CP2K| Data directory path            /gxfs_home/cau/suphc355/software/cp2k/data
 CP2K| Input file name                                               PP_quad.inp
 
 GLOBAL| Force Environment number                                              1
 GLOBAL| Basis set file name                                 ../../../basis_quad
 GLOBAL| Potential file name                                  GTH_SOC_POTENTIALS
 GLOBAL| MM Potential file name                                     MM_POTENTIAL
 GLOBAL| Coordinate file name                                            opt.xyz
 GLOBAL| Method name                                                        CP2K
 GLOBAL| Project name                                                 HF_PP_quad
 GLOBAL| Run type                                                         ENERGY
 GLOBAL| FFT library                                                       FFTW3
 GLOBAL| Diagonalization library                                       ScaLAPACK
 GLOBAL| DGEMM library                                                      BLAS
 GLOBAL| Orthonormality check for eigenvectors                          DISABLED
 GLOBAL| Matrix multiplication library                                     COSMA
 GLOBAL| All-to-all communication in single precision                          F
 GLOBAL| FFTs using library dependent lengths                                  F
 GLOBAL| Grid backend                                                       AUTO
 GLOBAL| Global print level                                               MEDIUM
 GLOBAL| MPI I/O enabled                                                       T
 GLOBAL| Total number of message passing processes                           128
 GLOBAL| Number of threads for this process                                    1
 GLOBAL| This output is from process                                           0
 GLOBAL| Stack size for threads created by OpenMP (OMP_STACKSIZE)        default
 GLOBAL| CPU model name                              Intel(R) Xeon(R) Gold 6426Y
 GLOBAL| CPUID                                                              1003

 MEMORY| system memory details [Kb]
 MEMORY|                        rank 0           min           max       average
 MEMORY| MemTotal            263786136     263786136     263786136     263786136
 MEMORY| MemFree             243509044     243086112     243520028     243331684
 MEMORY| Buffers                722868        722868        940848        825238
 MEMORY| Cached                 658284        650748        725848        683111
 MEMORY| Slab                   543088        543088        612836        575975
 MEMORY| SReclaimable           123328        123328        147592        135833
 MEMORY| MemLikelyFree       245013524     244900400     245070564     244975866


 *** Fundamental physical constants (SI units) ***

 *** Literature: B. J. Mohr and B. N. Taylor,
 ***             CODATA recommended values of the fundamental physical
 ***             constants: 2006, Web Version 5.1
 ***             http://physics.nist.gov/constants

 Speed of light in vacuum [m/s]                             2.99792458000000E+08
 Magnetic constant or permeability of vacuum [N/A**2]       1.25663706143592E-06
 Electric constant or permittivity of vacuum [F/m]          8.85418781762039E-12
 Planck constant (h) [J*s]                                  6.62606896000000E-34
 Planck constant (h-bar) [J*s]                              1.05457162825177E-34
 Elementary charge [C]                                      1.60217648700000E-19
 Electron mass [kg]                                         9.10938215000000E-31
 Electron g factor [ ]                                     -2.00231930436220E+00
 Proton mass [kg]                                           1.67262163700000E-27
 Fine-structure constant                                    7.29735253760000E-03
 Rydberg constant [1/m]                                     1.09737315685270E+07
 Avogadro constant [1/mol]                                  6.02214179000000E+23
 Boltzmann constant [J/K]                                   1.38065040000000E-23
 Atomic mass unit [kg]                                      1.66053878200000E-27
 Bohr radius [m]                                            5.29177208590000E-11

 *** Conversion factors ***

 [u] -> [a.u.]                                              1.82288848426455E+03
 [Angstrom] -> [Bohr] = [a.u.]                              1.88972613288564E+00
 [a.u.] = [Bohr] -> [Angstrom]                              5.29177208590000E-01
 [a.u.] -> [s]                                              2.41888432650478E-17
 [a.u.] -> [fs]                                             2.41888432650478E-02
 [a.u.] -> [J]                                              4.35974393937059E-18
 [a.u.] -> [N]                                              8.23872205491840E-08
 [a.u.] -> [K]                                              3.15774647902944E+05
 [a.u.] -> [kJ/mol]                                         2.62549961709828E+03
 [a.u.] -> [kcal/mol]                                       6.27509468713739E+02
 [a.u.] -> [Pa]                                             2.94210107994716E+13
 [a.u.] -> [bar]                                            2.94210107994716E+08
 [a.u.] -> [atm]                                            2.90362800883016E+08
 [a.u.] -> [eV]                                             2.72113838565563E+01
 [a.u.] -> [Hz]                                             6.57968392072181E+15
 [a.u.] -> [1/cm] (wave numbers)                            2.19474631370540E+05
 [a.u./Bohr**2] -> [1/cm]                                   5.14048714338585E+03
 

 CELL_TOP| Volume [angstrom^3]:                                      8000.000000
 CELL_TOP| Vector a [angstrom    20.000     0.000     0.000   |a| =    20.000000
 CELL_TOP| Vector b [angstrom     0.000    20.000     0.000   |b| =    20.000000
 CELL_TOP| Vector c [angstrom     0.000     0.000    20.000   |c| =    20.000000
 CELL_TOP| Angle (b,c), alpha [degree]:                                90.000000
 CELL_TOP| Angle (a,c), beta  [degree]:                                90.000000
 CELL_TOP| Angle (a,b), gamma [degree]:                                90.000000
 CELL_TOP| Numerically orthorhombic:                                         YES
 CELL_TOP| Periodicity                                                      NONE
 
 GENERATE|  Preliminary Number of Bonds generated:                             0
 GENERATE|  Achieved consistency in connectivity generation.

 CELL| Volume [angstrom^3]:                                          8000.000000
 CELL| Vector a [angstrom]:      20.000     0.000     0.000   |a| =    20.000000
 CELL| Vector b [angstrom]:       0.000    20.000     0.000   |b| =    20.000000
 CELL| Vector c [angstrom]:       0.000     0.000    20.000   |c| =    20.000000
 CELL| Angle (b,c), alpha [degree]:                                    90.000000
 CELL| Angle (a,c), beta  [degree]:                                    90.000000
 CELL| Angle (a,b), gamma [degree]:                                    90.000000
 CELL| Numerically orthorhombic:                                             YES
 CELL| Periodicity                                                          NONE

 CELL_REF| Volume [angstrom^3]:                                      8000.000000
 CELL_REF| Vector a [angstrom    20.000     0.000     0.000   |a| =    20.000000
 CELL_REF| Vector b [angstrom     0.000    20.000     0.000   |b| =    20.000000
 CELL_REF| Vector c [angstrom     0.000     0.000    20.000   |c| =    20.000000
 CELL_REF| Angle (b,c), alpha [degree]:                                90.000000
 CELL_REF| Angle (a,c), beta  [degree]:                                90.000000
 CELL_REF| Angle (a,b), gamma [degree]:                                90.000000
 CELL_REF| Numerically orthorhombic:                                         YES
 CELL_REF| Periodicity                                                      NONE

 *******************************************************************************
 *******************************************************************************
 **                                                                           **
 **     #####                         ##              ##                      **
 **    ##   ##            ##          ##              ##                      **
 **   ##     ##                       ##            ######                    **
 **   ##     ##  ##   ##  ##   #####  ##  ##   ####   ##    #####    #####    **
 **   ##     ##  ##   ##  ##  ##      ## ##   ##      ##   ##   ##  ##   ##   **
 **   ##  ## ##  ##   ##  ##  ##      ####     ###    ##   ######   ######    **
 **    ##  ###   ##   ##  ##  ##      ## ##      ##   ##   ##       ##        **
 **     #######   #####   ##   #####  ##  ##  ####    ##    #####   ##        **
 **           ##                                                    ##        **
 **                                                                           **
 **                                                ... make the atoms dance   **
 **                                                                           **
 **            Copyright (C) by CP2K developers group (2000-2024)             **
 **                      J. Chem. Phys. 152, 194103 (2020)                    **
 **                                                                           **
 *******************************************************************************

 DFT| Spin restricted Kohn-Sham (RKS) calculation                            RKS
 DFT| Multiplicity                                                             1
 DFT| Number of spin states                                                    1
 DFT| Charge                                                                   0
 DFT| Self-interaction correction (SIC)                                       NO
 DFT| Cutoffs: density                                              1.000000E-10
 DFT|          gradient                                             1.000000E-10
 DFT|          tau                                                  1.000000E-10
 DFT|          cutoff_smoothing_range                               0.000000E+00
 DFT| XC density smoothing                                                  NONE
 DFT| XC derivatives                                                          PW

 FUNCTIONAL| PBE:
 FUNCTIONAL| J.P.Perdew, K.Burke, M.Ernzerhof, Phys. Rev. Letter, vol. 77, n 18,
 FUNCTIONAL|  pp. 3865-3868, (1996)sx=0.750sc=1.000{spin unpolarized}           


 QS| Method:                                                                 GPW
 QS| Density plane wave grid type                        NON-SPHERICAL FULLSPACE
 QS| Number of grid levels:                                                    5
 QS| Density cutoff [a.u.]:                                                600.0
 QS| Multi grid cutoff [a.u.]: 1) grid level                               600.0
 QS|                           2) grid level                               200.0
 QS|                           3) grid level                                66.7
 QS|                           4) grid level                                22.2
 QS|                           5) grid level                                 7.4
 QS| Grid level progression factor:                                          3.0
 QS| Relative density cutoff [a.u.]:                                        40.0
 QS| Interaction thresholds: eps_pgf_orb:                                1.0E-30
 QS|                         eps_filter_matrix:                          0.0E+00
 QS|                         eps_core_charge:                            1.0E-17
 QS|                         eps_rho_gspace:                             1.0E-15
 QS|                         eps_rho_rspace:                             1.0E-15
 QS|                         eps_gvg_rspace:                             3.2E-08
 QS|                         eps_ppl:                                    1.0E-02
 QS|                         eps_ppnl:                                   3.2E-10


 ATOMIC KIND INFORMATION

  1. Atomic kind: F                                     Number of atoms:       1

     Orbital Basis Set                                             aug-QZV2P-GTH

       Number of orbital shell sets:                                           4
       Number of orbital shells:                                              12
       Number of primitive Cartesian functions:                               10
       Number of Cartesian basis functions:                                   32
       Number of spherical basis functions:                                   30
       Norm type:                                                              2

       Normalised Cartesian orbitals:

                        Set   Shell   Orbital            Exponent    Coefficient

                          1       1    2s               15.162300      -0.370242
                                                         6.341843      -0.375216
                                                         2.490023       0.224227
                                                         0.991924       0.369072
                                                         0.379315       0.147670
                                                         0.134813       0.009490

                          1       2    3s               15.162300       0.000000
                                                         6.341843       0.000000
                                                         2.490023       0.000000
                                                         0.991924       0.708384
                                                         0.379315       0.000000
                                                         0.134813       0.000000

                          1       3    4s               15.162300       0.000000
                                                         6.341843       0.000000
                                                         2.490023       0.000000
                                                         0.991924       0.000000
                                                         0.379315       0.344477
                                                         0.134813       0.000000

                          1       4    5s               15.162300       0.000000
                                                         6.341843       0.000000
                                                         2.490023       0.000000
                                                         0.991924       0.000000
                                                         0.379315       0.000000
                                                         0.134813       0.158566

                          1       5    3px              15.162300       1.738526
                                                         6.341843       1.971629
                                                         2.490023       1.243807
                                                         0.991924       0.516723
                                                         0.379315       0.137247
                                                         0.134813       0.015230
                          1       5    3py              15.162300       1.738526
                                                         6.341843       1.971629
                                                         2.490023       1.243807
                                                         0.991924       0.516723
                                                         0.379315       0.137247
                                                         0.134813       0.015230
                          1       5    3pz              15.162300       1.738526
                                                         6.341843       1.971629
                                                         2.490023       1.243807
                                                         0.991924       0.516723
                                                         0.379315       0.137247
                                                         0.134813       0.015230

                          1       6    4px              15.162300       0.000000
                                                         6.341843       0.000000
                                                         2.490023       0.000000
                                                         0.991924       1.411036
                                                         0.379315       0.000000
                                                         0.134813       0.000000
                          1       6    4py              15.162300       0.000000
                                                         6.341843       0.000000
                                                         2.490023       0.000000
                                                         0.991924       1.411036
                                                         0.379315       0.000000
                                                         0.134813       0.000000
                          1       6    4pz              15.162300       0.000000
                                                         6.341843       0.000000
                                                         2.490023       0.000000
                                                         0.991924       1.411036
                                                         0.379315       0.000000
                                                         0.134813       0.000000

                          1       7    5px              15.162300       0.000000
                                                         6.341843       0.000000
                                                         2.490023       0.000000
                                                         0.991924       0.000000
                                                         0.379315       0.424317
                                                         0.134813       0.000000
                          1       7    5py              15.162300       0.000000
                                                         6.341843       0.000000
                                                         2.490023       0.000000
                                                         0.991924       0.000000
                                                         0.379315       0.424317
                                                         0.134813       0.000000
                          1       7    5pz              15.162300       0.000000
                                                         6.341843       0.000000
                                                         2.490023       0.000000
                                                         0.991924       0.000000
                                                         0.379315       0.424317
                                                         0.134813       0.000000

                          1       8    6px              15.162300       0.000000
                                                         6.341843       0.000000
                                                         2.490023       0.000000
                                                         0.991924       0.000000
                                                         0.379315       0.000000
                                                         0.134813       0.116441
                          1       8    6py              15.162300       0.000000
                                                         6.341843       0.000000
                                                         2.490023       0.000000
                                                         0.991924       0.000000
                                                         0.379315       0.000000
                                                         0.134813       0.116441
                          1       8    6pz              15.162300       0.000000
                                                         6.341843       0.000000
                                                         2.490023       0.000000
                                                         0.991924       0.000000
                                                         0.379315       0.000000
                                                         0.134813       0.116441

                          2       1    3dx2              3.107000      11.967589
                                                         0.855000       0.000000
                          2       1    3dxy              3.107000      20.728471
                                                         0.855000       0.000000
                          2       1    3dxz              3.107000      20.728471
                                                         0.855000       0.000000
                          2       1    3dy2              3.107000      11.967589
                                                         0.855000       0.000000
                          2       1    3dyz              3.107000      20.728471
                                                         0.855000       0.000000
                          2       1    3dz2              3.107000      11.967589
                                                         0.855000       0.000000

                          2       2    4dx2              3.107000       0.000000
                                                         0.855000       1.251267
                          2       2    4dxy              3.107000       0.000000
                                                         0.855000       2.167259
                          2       2    4dxz              3.107000       0.000000
                                                         0.855000       2.167259
                          2       2    4dy2              3.107000       0.000000
                                                         0.855000       1.251267
                          2       2    4dyz              3.107000       0.000000
                                                         0.855000       2.167259
                          2       2    4dz2              3.107000       0.000000
                                                         0.855000       1.251267

                          3       1    2s                0.085940       0.113124

                          4       1    2px               0.065680       0.047395
                          4       1    2py               0.065680       0.047395
                          4       1    2pz               0.065680       0.047395

       Atomic covalent radius [Angstrom]:                                  0.720

       Atomic van der Waals radius [Angstrom]:                             1.470

     GTH Potential information for                                       GTH-PBE

       Description:                       Goedecker-Teter-Hutter pseudopotential
                                           Goedecker et al., PRB 54, 1703 (1996)
                                          Hartwigsen et al., PRB 58, 3641 (1998)
                                                      Krack, TCA 114, 145 (2005)

       Gaussian exponent of the core charge distribution:              10.823746
       Electronic configuration (s p d ...):                               2   5

       Parameters of the local part of the GTH pseudopotential:

                          rloc        C1          C2          C3          C4
                        0.214930  -21.573028    3.199776

       Parameters of the non-local part of the GTH (SOC) pseudopotential:

                   l      r(l)      h(i,j,l)
                                    k(i,j,l)
                   0    0.194684   23.743540
                   1    0.186156    0.000000
                                    0.012614

  2. Atomic kind: H                                     Number of atoms:       1

     Orbital Basis Set                                             aug-QZV2P-GTH

       Number of orbital shell sets:                                           4
       Number of orbital shells:                                               8
       Number of primitive Cartesian functions:                               10
       Number of Cartesian basis functions:                                   14
       Number of spherical basis functions:                                   14
       Norm type:                                                              2

       Normalised Cartesian orbitals:

                        Set   Shell   Orbital            Exponent    Coefficient

                          1       1    1s               12.535095       0.054279
                                                         4.549154       0.076380
                                                         1.668519       0.105441
                                                         0.652385       0.119104
                                                         0.273301       0.109581
                                                         0.139061       0.053929

                          1       2    2s               12.535095       0.000000
                                                         4.549154       0.000000
                                                         1.668519       0.000000
                                                         0.652385       0.517354
                                                         0.273301       0.000000
                                                         0.139061       0.000000

                          1       3    3s               12.535095       0.000000
                                                         4.549154       0.000000
                                                         1.668519       0.000000
                                                         0.652385       0.000000
                                                         0.273301       0.269396
                                                         0.139061       0.000000

                          1       4    4s               12.535095       0.000000
                                                         4.549154       0.000000
                                                         1.668519       0.000000
                                                         0.652385       0.000000
                                                         0.273301       0.000000
                                                         0.139061       0.162298

                          2       1    2px               1.407000       2.184277
                                                         0.388000       0.000000
                          2       1    2py               1.407000       2.184277
                                                         0.388000       0.000000
                          2       1    2pz               1.407000       2.184277
                                                         0.388000       0.000000

                          2       2    3px               1.407000       0.000000
                                                         0.388000       0.436495
                          2       2    3py               1.407000       0.000000
                                                         0.388000       0.436495
                          2       2    3pz               1.407000       0.000000
                                                         0.388000       0.436495

                          3       1    5s                0.023630       0.042954

                          4       1    4px               0.084800       0.065228
                          4       1    4py               0.084800       0.065228
                          4       1    4pz               0.084800       0.065228

       Atomic covalent radius [Angstrom]:                                  0.320

       Atomic van der Waals radius [Angstrom]:                             1.090

     GTH Potential information for                                       GTH-PBE

       Description:                       Goedecker-Teter-Hutter pseudopotential
                                           Goedecker et al., PRB 54, 1703 (1996)
                                          Hartwigsen et al., PRB 58, 3641 (1998)
                                                      Krack, TCA 114, 145 (2005)

       Gaussian exponent of the core charge distribution:              12.500000
       Electronic configuration (s p d ...):                                   1

       Parameters of the local part of the GTH pseudopotential:

                          rloc        C1          C2          C3          C4
                        0.200000   -4.178900    0.724463


 MOLECULE KIND INFORMATION


 All atoms are their own molecule, skipping detailed information


 TOTAL NUMBERS AND MAXIMUM NUMBERS

  Total number of            - Atomic kinds:                                   2
                             - Atoms:                                          2
                             - Shell sets:                                     8
                             - Shells:                                        20
                             - Primitive Cartesian functions:                 20
                             - Cartesian basis functions:                     46
                             - Spherical basis functions:                     44

  Maximum angular momentum of- Orbital basis functions:                        2
                             - Local part of the GTH pseudopotential:          2
                             - Non-local part of the GTH pseudopotential:      1


 MODULE QUICKSTEP: ATOMIC COORDINATES IN ANGSTROM

   Atom Kind Element         X             Y             Z       Z(eff)     Mass
      1    1 F     9      9.533795     10.000000     10.000000   7.0000  18.9984
      2    2 H     1     10.466205     10.000000     10.000000   1.0000   1.0079



 SCF PARAMETERS         Density guess:                                    ATOMIC
                        --------------------------------------------------------
                        max_scf:                                              20
                        max_scf_history:                                       0
                        max_diis:                                              4
                        --------------------------------------------------------
                        eps_scf:                                        1.00E-07
                        eps_scf_history:                                0.00E+00
                        eps_diis:                                       1.00E-01
                        eps_eigval:                                     1.00E-05
                        --------------------------------------------------------
                        level_shift [a.u.]:                             0.000000
                        --------------------------------------------------------
                        Outer loop SCF in use 
                        No variables optimised in outer loop
                        eps_scf                                         1.00E-07
                        max_scf                                               50
                        No outer loop optimization
                        step_size                                       5.00E-01

 PW_GRID| Information for grid number                                          1
 PW_GRID| Grid distributed over                                   128 processors
 PW_GRID| Real space group dimensions                                   128    1
 PW_GRID| the grid is blocked:                                                NO
 PW_GRID| Cutoff [a.u.]                                                   1200.0
 PW_GRID| spherical cutoff:                                                   NO
 PW_GRID|   Bounds   1           -300     299                Points:         600
 PW_GRID|   Bounds   2           -300     299                Points:         600
 PW_GRID|   Bounds   3           -300     299                Points:         600
 PW_GRID| Volume element (a.u.^3)  0.2499E-03     Volume (a.u.^3)     53986.6767
 PW_GRID| Grid span                                                    FULLSPACE
 PW_GRID|   Distribution                         Average         Max         Min
 PW_GRID|   G-Vectors                          1687500.0     1687800     1687200
 PW_GRID|   G-Rays                                2812.5        2813        2812
 PW_GRID|   Real Space Points                  1687500.0     1800000     1440000

 PW_GRID| Information for grid number                                          2
 PW_GRID| Number of the reference grid                                         1
 PW_GRID| Grid distributed over                                   128 processors
 PW_GRID| Real space group dimensions                                   128    1
 PW_GRID| the grid is blocked:                                                NO
 PW_GRID| Cutoff [a.u.]                                                    600.0
 PW_GRID| spherical cutoff:                                                   NO
 PW_GRID|   Bounds   1           -216     215                Points:         432
 PW_GRID|   Bounds   2           -216     215                Points:         432
 PW_GRID|   Bounds   3           -216     215                Points:         432
 PW_GRID| Volume element (a.u.^3)  0.6696E-03     Volume (a.u.^3)     53986.6767
 PW_GRID| Grid span                                                    FULLSPACE
 PW_GRID|   Distribution                         Average         Max         Min
 PW_GRID|   G-Vectors                           629856.0      630288      629424
 PW_GRID|   G-Rays                                1458.0        1459        1457
 PW_GRID|   Real Space Points                   629856.0      746496      559872

 PW_GRID| Information for grid number                                          3
 PW_GRID| Number of the reference grid                                         2
 PW_GRID| Grid distributed over                                   128 processors
 PW_GRID| Real space group dimensions                                   128    1
 PW_GRID| the grid is blocked:                                                NO
 PW_GRID| Cutoff [a.u.]                                                    200.0
 PW_GRID| spherical cutoff:                                                   NO
 PW_GRID|   Bounds   1           -121     121                Points:         243
 PW_GRID|   Bounds   2           -121     121                Points:         243
 PW_GRID|   Bounds   3           -121     121                Points:         243
 PW_GRID| Volume element (a.u.^3)  0.3762E-02     Volume (a.u.^3)     53986.6767
 PW_GRID| Grid span                                                    FULLSPACE
 PW_GRID|   Distribution                         Average         Max         Min
 PW_GRID|   G-Vectors                           112100.8      112266      111780
 PW_GRID|   G-Rays                                 461.3         462         460
 PW_GRID|   Real Space Points                   112100.8      118098       59049

 PW_GRID| Information for grid number                                          4
 PW_GRID| Number of the reference grid                                         2
 PW_GRID| Grid distributed over                                   128 processors
 PW_GRID| Real space group dimensions                                   128    1
 PW_GRID| the grid is blocked:                                                NO
 PW_GRID| Cutoff [a.u.]                                                     66.7
 PW_GRID| spherical cutoff:                                                   NO
 PW_GRID|   Bounds   1            -72      71                Points:         144
 PW_GRID|   Bounds   2            -72      71                Points:         144
 PW_GRID|   Bounds   3            -72      71                Points:         144
 PW_GRID| Volume element (a.u.^3)  0.1808E-01     Volume (a.u.^3)     53986.6767
 PW_GRID| Grid span                                                    FULLSPACE
 PW_GRID|   Distribution                         Average         Max         Min
 PW_GRID|   G-Vectors                            23328.0       23472       23184
 PW_GRID|   G-Rays                                 162.0         163         161
 PW_GRID|   Real Space Points                    23328.0       41472       20736

 PW_GRID| Information for grid number                                          5
 PW_GRID| Number of the reference grid                                         2
 PW_GRID| Grid distributed over                                   128 processors
 PW_GRID| Real space group dimensions                                     8   16
 PW_GRID| the grid is blocked:                                                NO
 PW_GRID| Cutoff [a.u.]                                                     22.2
 PW_GRID| spherical cutoff:                                                   NO
 PW_GRID|   Bounds   1            -40      40                Points:          81
 PW_GRID|   Bounds   2            -40      40                Points:          81
 PW_GRID|   Bounds   3            -40      40                Points:          81
 PW_GRID| Volume element (a.u.^3)  0.1016         Volume (a.u.^3)     53986.6767
 PW_GRID| Grid span                                                    FULLSPACE
 PW_GRID|   Distribution                         Average         Max         Min
 PW_GRID|   G-Vectors                             4151.9        4293        4050
 PW_GRID|   G-Rays                                  51.3          53          50
 PW_GRID|   Real Space Points                     4151.9        5346        4050

 PW_GRID| Information for grid number                                          6
 PW_GRID| Number of the reference grid                                         2
 PW_GRID| Grid distributed over                                   128 processors
 PW_GRID| Real space group dimensions                                     8   16
 PW_GRID| the grid is blocked:                                                NO
 PW_GRID| Cutoff [a.u.]                                                      7.4
 PW_GRID| spherical cutoff:                                                   NO
 PW_GRID|   Bounds   1            -24      23                Points:          48
 PW_GRID|   Bounds   2            -24      23                Points:          48
 PW_GRID|   Bounds   3            -24      23                Points:          48
 PW_GRID| Volume element (a.u.^3)  0.4882         Volume (a.u.^3)     53986.6767
 PW_GRID| Grid span                                                    FULLSPACE
 PW_GRID|   Distribution                         Average         Max         Min
 PW_GRID|   G-Vectors                              864.0         912         816
 PW_GRID|   G-Rays                                  18.0          19          17
 PW_GRID|   Real Space Points                      864.0         864         864

 POISSON| Solver                                          Martyna-Tuckerman (MT)
 POISSON| MT| Alpha                                                        7.000
 POISSON| MT| Relative cutoff                                                2.0
 POISSON| Periodicity                                                       NONE

 RS_GRID| Information for grid number                                          2
 RS_GRID|   Bounds   1           -216     215                Points:         432
 RS_GRID|   Bounds   2           -216     215                Points:         432
 RS_GRID|   Bounds   3           -216     215                Points:         432
 RS_GRID| Real space distribution over                                  4 groups
 RS_GRID| Real space distribution along direction                              1
 RS_GRID| Border size                                                         32
 RS_GRID| Real space distribution over                                  4 groups
 RS_GRID| Real space distribution along direction                              2
 RS_GRID| Border size                                                         32
 RS_GRID| Real space distribution over                                  8 groups
 RS_GRID| Real space distribution along direction                              3
 RS_GRID| Border size                                                         32
 RS_GRID|   Distribution                         Average         Max         Min
 RS_GRID|   Planes                                 172.0         172         172
 RS_GRID|   Distribution                         Average         Max         Min
 RS_GRID|   Planes                                 172.0         172         172
 RS_GRID|   Distribution                         Average         Max         Min
 RS_GRID|   Planes                                 118.0         118         118

 RS_GRID| Information for grid number                                          3
 RS_GRID|   Bounds   1           -121     121                Points:         243
 RS_GRID|   Bounds   2           -121     121                Points:         243
 RS_GRID|   Bounds   3           -121     121                Points:         243
 RS_GRID| Real space distribution over                                  4 groups
 RS_GRID| Real space distribution along direction                              1
 RS_GRID| Border size                                                         34
 RS_GRID| Real space distribution over                                  4 groups
 RS_GRID| Real space distribution along direction                              2
 RS_GRID| Border size                                                         34
 RS_GRID| Real space distribution over                                  8 groups
 RS_GRID| Real space distribution along direction                              3
 RS_GRID| Border size                                                         34
 RS_GRID|   Distribution                         Average         Max         Min
 RS_GRID|   Planes                                 128.8         129         128
 RS_GRID|   Distribution                         Average         Max         Min
 RS_GRID|   Planes                                 128.8         129         128
 RS_GRID|   Distribution                         Average         Max         Min
 RS_GRID|   Planes                                  98.4          99          98

 RS_GRID| Information for grid number                                          4
 RS_GRID|   Bounds   1            -72      71                Points:         144
 RS_GRID|   Bounds   2            -72      71                Points:         144
 RS_GRID|   Bounds   3            -72      71                Points:         144
 RS_GRID| Real space fully replicated
 RS_GRID| Group size                                                           1

 RS_GRID| Information for grid number                                          5
 RS_GRID|   Bounds   1            -40      40                Points:          81
 RS_GRID|   Bounds   2            -40      40                Points:          81
 RS_GRID|   Bounds   3            -40      40                Points:          81
 RS_GRID| Real space fully replicated
 RS_GRID| Group size                                                           1

 RS_GRID| Information for grid number                                          6
 RS_GRID|   Bounds   1            -24      23                Points:          48
 RS_GRID|   Bounds   2            -24      23                Points:          48
 RS_GRID|   Bounds   3            -24      23                Points:          48
 RS_GRID| Real space fully replicated
 RS_GRID| Group size                                                           1

  HFX_INFO| Replica ID:                                                        1
  HFX_INFO| FRACTION:                                               0.2500000000
  HFX_INFO| Interaction Potential:                                       COULOMB
  HFX_INFO| EPS_SCHWARZ:                                                 1.0E-10
  HFX_INFO| EPS_SCHWARZ_FORCES                                           1.0E-06
  HFX_INFO| EPS_STORAGE_SCALING:                                         1.0E+00
  HFX_INFO| NBINS:                                                            64
  HFX_INFO| BLOCK_SIZE:                                                        1
  HFX_INFO| Number of periodic shells considered:                           NONE
  HFX_INFO| Number of periodic cells considered:                            NONE


 Number of electrons:                                                          8
 Number of occupied orbitals:                                                  4
 Number of molecular orbitals:                                                 4

 Number of orbital functions:                                                 44
 Number of independent orbital functions:                                     44

 Extrapolation method: initial_guess

 Atomic guess: The first density matrix is obtained in terms of atomic orbitals
               and electronic configurations assigned to each atomic kind

 Guess for atomic kind: F

 Electronic structure
    Total number of core electrons                                          2.00
    Total number of valence electrons                                       7.00
    Total number of electrons                                               9.00
    Multiplicity                                                   not specified
    S   [  2.00] 2.00
    P      5.00
 

 *******************************************************************************
                  Iteration          Convergence                     Energy [au]
 *******************************************************************************
                          1        0.942400                     -23.739239267101
                          2         1.13546                     -23.699911201829
                          3        0.872941E-01                 -23.938703174742
                          4        0.370834E-02                 -23.940444682042
                          5        0.195180E-03                 -23.940446582708
                          6        0.175443E-05                 -23.940446591097
                          7        0.787908E-06                 -23.940446591098

 Energy components [Hartree]           Total Energy ::          -23.940446591098
                                        Band Energy ::           -4.157867928823
                                     Kinetic Energy ::           18.794111318941
                                   Potential Energy ::          -42.734557910039
                                      Virial (-V/T) ::            2.273827008089
                                        Core Energy ::          -40.725432392848
                                          XC Energy ::           -4.362532399315
                                     Coulomb Energy ::           21.147518201065
                       Total Pseudopotential Energy ::          -59.553896916564
                       Local Pseudopotential Energy ::          -61.260705354444
                    Nonlocal Pseudopotential Energy ::            1.706808437880
                                        Confinement ::            0.343532047751

 Orbital energies  State     L     Occupation   Energy[a.u.]          Energy[eV]

                       1     0          2.000      -1.085728          -29.544163
 
                       1     1          5.000      -0.397282          -10.810603
 

 Total Electron Density at R=0:                                         0.000098

 Guess for atomic kind: H

 Electronic structure
    Total number of core electrons                                          0.00
    Total number of valence electrons                                       1.00
    Total number of electrons                                               1.00
    Multiplicity                                                   not specified
    S      1.00
 

 *******************************************************************************
                  Iteration          Convergence                     Energy [au]
 *******************************************************************************
                          1        0.414208E-02                  -0.424528229559
                          2        0.314168E-03                  -0.424550111617
                          3        0.369321E-04                  -0.424550384070
                          4        0.144789E-06                  -0.424550386562

 Energy components [Hartree]           Total Energy ::           -0.424550386562
                                        Band Energy ::           -0.199016913709
                                     Kinetic Energy ::            0.461279695514
                                   Potential Energy ::           -0.885830082076
                                      Virial (-V/T) ::            1.920375188178
                                        Core Energy ::           -0.479748082297
                                          XC Energy ::           -0.244575529316
                                     Coulomb Energy ::            0.299773225051
                       Total Pseudopotential Energy ::           -0.959966278400
                       Local Pseudopotential Energy ::           -0.959966278400
                    Nonlocal Pseudopotential Energy ::            0.000000000000
                                        Confinement ::            0.189385005893

 Orbital energies  State     L     Occupation   Energy[a.u.]          Energy[eV]

                       1     0          1.000      -0.199017           -5.415526
 

 Total Electron Density at R=0:                                         0.232501
 Re-scaling the density matrix to get the right number of electrons
                  # Electrons              Trace(P)               Scaling factor
                            8                 8.000                        1.000


 SCF WAVEFUNCTION OPTIMIZATION

  ----------------------------------- OT ---------------------------------------
  Minimizer      : DIIS                : direct inversion
                                         in the iterative subspace
                                         using   7 DIIS vectors
                                         safer DIIS on
  Preconditioner : FULL_ALL            : diagonalization, state selective
  Precond_solver : DEFAULT
  stepsize       :    0.15000000                  energy_gap     :    0.08000000
  eps_taylor     :   0.10000E-15                  max_taylor     :             4
  ----------------------------------- OT ---------------------------------------

  Step     Update method      Time    Convergence         Total energy    Change
  ------------------------------------------------------------------------------

  HFX_MEM_INFO| Est. max. program size before HFX [MiB]:                     890
  HFX_MEM_INFO| Number of cart. primitive ERI's calculated:              4630668
  HFX_MEM_INFO| Number of sph. ERI's calculated:                         1661536
  HFX_MEM_INFO| Number of sph. ERI's stored in-core:                     1661536
  HFX_MEM_INFO| Number of sph. ERI's stored on disk:                           0
  HFX_MEM_INFO| Number of sph. ERI's calculated on the fly:                    0
  HFX_MEM_INFO| Total memory consumption ERI's RAM [MiB]:                      8
  HFX_MEM_INFO| Whereof max-vals [MiB]:                                        1
  HFX_MEM_INFO| Total compression factor ERI's RAM:                         1.79
  HFX_MEM_INFO| Total memory consumption ERI's disk [MiB]:                     0
  HFX_MEM_INFO| Total compression factor ERI's disk:                        0.00
  HFX_MEM_INFO| Size of density/Fock matrix [MiB]:                             0
  HFX_MEM_INFO| Size of buffers [MiB]:                                         0
  HFX_MEM_INFO| Est. max. program size after HFX  [MiB]:                     892

     1 OT DIIS     0.15E+00   92.9     0.14746752       -24.4344972358 -2.44E+01
     2 OT DIIS     0.15E+00   55.1     0.04465571       -24.8059071049 -3.71E-01
     3 OT DIIS     0.15E+00   54.5     0.02418635       -24.8330865417 -2.72E-02
     4 OT DIIS     0.15E+00   54.2     0.00540193       -24.8381230622 -5.04E-03
     5 OT DIIS     0.15E+00   54.0     0.00166112       -24.8387207216 -5.98E-04
     6 OT DIIS     0.15E+00   54.0     0.00042190       -24.8387523959 -3.17E-05
     7 OT DIIS     0.15E+00   50.5     0.00007054       -24.8387547942 -2.40E-06
     8 OT DIIS     0.15E+00   48.7     0.00000930       -24.8387548523 -5.81E-08
     9 OT DIIS     0.15E+00   52.6     0.00000202       -24.8387548537 -1.44E-09
    10 OT DIIS     0.15E+00   55.5     0.00000028       -24.8387548538 -7.26E-11
    11 OT DIIS     0.15E+00   52.0     0.00000007       -24.8387548538 -1.18E-12

  *** SCF run converged in    11 steps ***


  Electronic density on regular grids:         -8.0000000000       -0.0000000000
  Core density on regular grids:                8.0000000000       -0.0000000000
  Total charge density on r-space grids:       -0.0000000000
  Total charge density g-space grids:          -0.0000000000

  Overlap energy of the core charge distribution:               0.00000000776294
  Self energy of the core charge distribution:                -65.72290668123225
  Core Hamiltonian energy:                                     18.58730351372871
  Hartree energy:                                              27.30915483213585
  Exchange-correlation energy:                                 -3.83870786687142
  Hartree-Fock Exchange energy:                                -1.17359865929951

  Total energy:                                               -24.83875485377568

  outer SCF iter =    1 RMS gradient =   0.69E-07 energy =        -24.8387548538
  outer SCF loop converged in   1 iterations or   11 steps


 !-----------------------------------------------------------------------------!
                     Mulliken Population Analysis

 #  Atom  Element  Kind  Atomic population                           Net charge
       1     F        1          7.341535                             -0.341535
       2     H        2          0.658465                              0.341535
 # Total charge                              8.000000                 -0.000000

 !-----------------------------------------------------------------------------!

 !-----------------------------------------------------------------------------!
                           Hirshfeld Charges

  #Atom  Element  Kind  Ref Charge     Population                    Net charge
      1       F      1       7.000          7.621                        -0.621
      2       H      2       1.000          0.377                         0.623

  Total Charge                                                            0.002
 !-----------------------------------------------------------------------------!

 *******************************************************************************
 **                                                                           **
 **         ######## #######   #######   ######## #######  ########           **
 **            ##    ##     ## ##     ## ##       ##   ##     ##              **
 **            ##    ##     ## ##     ## ######   #######     ##              **
 **            ##    ##     ## ##     ## ##       ##          ##              **
 **            ##    #######   #######   ##       ##          ##              **
 **                                                                           **
 *******************************************************************************
 KERNEL|                                                                    FULL
 FUNCTIONAL| PBE:
 FUNCTIONAL| J.P.Perdew, K.Burke, M.Ernzerhof, Phys. Rev. Letter, vol. 77, n 18,
 FUNCTIONAL|  pp. 3865-3868, (1996)sx=0.750sc=1.000{spin unpolarized}           
 KERNEL|                                                          Exact Exchange
 KERNEL| Spin symmetry of excitations                                    Triplet
 TDDFPT| Number of states calculated                                          10
 TDDFPT| Number of Davidson iterations                                        20
 TDDFPT| Davidson iteration convergence                                0.100E-07
 TDDFPT| Max. number of Krylov space vectors                                  60
 TDDFPT| Molecular Orbitals:        Spin       AOs       Occ      Virt     Total
 TDDFPT|                               1        44         4        40        44

 *******************************************************************************
 **                                                                           **
 **                            ####### ####### #######                        **
 **                        #   ##      ##   ## ##                             **
 **                       ###  ######  ##   ## ##                             **
 **                        #       ##  ##   ## ##                             **
 **                            ######  ####### #######                        **
 **                 Based on the xas module from Augustin Bussy               **
 *******************************************************************************
 
 -------------------------------------------------------------------------------
 -                      TDDFPT TRIPLET ENERGIES                                 -
 -------------------------------------------------------------------------------
 
 -------------------------------------------------------------------------------
 -                            TDDFPT Initial Guess                             -
 -------------------------------------------------------------------------------
          State         Occupied      ->      Virtual          Excitation
          number         orbital              orbital          energy (eV)
 -------------------------------------------------------------------------------
             1                4                    5             11.37234
             2                3                    5             11.37234
             3                4                    6             13.86231
             4                3                    6             13.86231
             5                4                    7             14.61951
             6                3                    7             14.61951
             7                4                    8             14.61951
             8                3                    8             14.61951
             9                4                    9             14.94794
            10                3                    9             14.94794

      Number of active states:                                        160
 -------------------------------------------------------------------------------
 
 -------------------------------------------------------------------------------
 -                      TDDFPT WAVEFUNCTION OPTIMIZATION                       -
 -------------------------------------------------------------------------------

          Step            Time         Convergence           Conv. states
 -------------------------------------------------------------------------------

    State    Exc. energy (eV)      Convergence (eV)
        1       9.2871964            -2.0851E+00
        2       9.2871964            -2.0851E+00
        3      12.2788049            -1.5835E+00
        4      12.2788050            -1.5835E+00
        5      12.6459563            -1.9736E+00
        6      12.8153399            -1.8042E+00
        7      12.8153539            -1.8042E+00
        8      13.0393372            -1.5802E+00
        9      13.3123608            -1.6356E+00
       10      13.3123608            -1.6356E+00
 
             1           540.6          7.6628E-02                      0

    State    Exc. energy (eV)      Convergence (eV)
        1       9.1357931            -1.5140E-01
        2       9.1357932            -1.5140E-01
        3      12.1212970            -1.5751E-01
        4      12.1212970            -1.5751E-01
        5      12.4961954            -1.4976E-01
        6      12.7222430            -9.3097E-02
        7      12.7222918            -9.3062E-02
        8      12.9981612            -4.1176E-02
        9      13.2487189            -6.3642E-02
       10      13.2487189            -6.3642E-02
 
             2           528.0          5.7883E-03                      0

    State    Exc. energy (eV)      Convergence (eV)
        1       9.1355949            -1.9821E-04
        2       9.1355950            -1.9821E-04
        3      12.1203969            -9.0007E-04
        4      12.1203969            -9.0007E-04
        5      12.4713981            -2.4797E-02
        6      12.7220120            -2.3099E-04
        7      12.7220609            -2.3091E-04
        8      12.9980206            -1.4056E-04
        9      13.1706886            -7.8030E-02
       10      13.2482451            -4.7380E-04
 
             3           515.1          2.8676E-03                      0

    State    Exc. energy (eV)      Convergence (eV)
        1       9.1355944            -5.2490E-07
        2       9.1355944            -5.2487E-07
        3      12.1203915            -5.3828E-06
        4      12.1203916            -5.3807E-06
        5      12.3042560            -1.6714E-01
        6      12.5430350            -1.7898E-01
        7      12.7220037            -5.7269E-05
        8      12.7220526            -2.7597E-01
        9      12.9980188            -1.7267E-01
       10      13.2482398            -5.3825E-06
 
             4           538.8          1.0142E-02                      0

    State    Exc. energy (eV)      Convergence (eV)
        1       9.1355944            -1.5957E-09
        2       9.1355944            -1.6274E-09
        3      12.1203915            -5.4862E-08
        4      12.1203915            -5.6989E-08
        5      12.2966056            -7.6504E-03
        6      12.5405623            -2.4727E-03
        7      12.7220036            -1.9977E-08
        8      12.7220526            -1.9957E-08
        9      12.9980188            -9.7098E-10
       10      13.2482397            -5.2143E-08
 
             5           520.1          2.8115E-04                      8

    State    Exc. energy (eV)      Convergence (eV)
        1       9.1355944            -1.4048E-12
        2       9.1355944            -1.4667E-12
        3      12.1203915            -1.1215E-10
        4      12.1203915            -1.4032E-10
        5      12.2965422            -6.3338E-05
        6      12.5405407            -2.1594E-05
        7      12.7220036            -3.3489E-12
        8      12.7220526            -3.3534E-12
        9      12.9980188            -1.3595E-14
       10      13.2482397            -1.4707E-10
 
             6           463.9          2.3276E-06                      8
 ------------------------- Restart Davidson iterations -------------------------

    State    Exc. energy (eV)      Convergence (eV)
        1       9.1355944             4.5316E-15
        2       9.1355944            -1.5105E-15
        3      12.1203915             1.5105E-15
        4      12.1203915             1.6616E-14
        5      12.2965422             1.2084E-14
        6      12.5405407             3.0211E-15
        7      12.7220036            -1.5105E-15
        8      12.7220526             2.1147E-14
        9      12.9980188             6.0421E-15
       10      13.2482397             4.6827E-14
 
             7           448.3          1.7208E-15                     10
 
 -------------------------------------------------------------------------------
 -  TDDFPT run converged in 7 iteration(s) 
 -------------------------------------------------------------------------------

 R-TDDFPT states of multiplicity 3
 Transition dipoles calculated using length formulation

         State    Excitation        Transition dipole (a.u.)        Oscillator
         number   energy (eV)       x           y           z     strength (a.u.)
         ------------------------------------------------------------------------
 TDDFPT|      1       9.13559   0.0000E+00  0.0000E+00  0.0000E+00   0.00000E+00
 TDDFPT|      2       9.13559   0.0000E+00  0.0000E+00  0.0000E+00   0.00000E+00
 TDDFPT|      3      12.12039   0.0000E+00  0.0000E+00  0.0000E+00   0.00000E+00
 TDDFPT|      4      12.12039   0.0000E+00  0.0000E+00  0.0000E+00   0.00000E+00
 TDDFPT|      5      12.29654   0.0000E+00  0.0000E+00  0.0000E+00   0.00000E+00
 TDDFPT|      6      12.54054   0.0000E+00  0.0000E+00  0.0000E+00   0.00000E+00
 TDDFPT|      7      12.72200   0.0000E+00  0.0000E+00  0.0000E+00   0.00000E+00
 TDDFPT|      8      12.72205   0.0000E+00  0.0000E+00  0.0000E+00   0.00000E+00
 TDDFPT|      9      12.99802   0.0000E+00  0.0000E+00  0.0000E+00   0.00000E+00
 TDDFPT|     10      13.24824   0.0000E+00  0.0000E+00  0.0000E+00   0.00000E+00

 TDDFPT : CheckSum  =  0.139326E+01
 
 -------------------------------------------------------------------------------
 -                            Excitation analysis                              -
 -------------------------------------------------------------------------------
        State             Occupied              Virtual             Excitation
        number             orbital              orbital             amplitude
 -------------------------------------------------------------------------------
             1   9.13559 eV
                                 4                    5               0.951456
                                 4                    6              -0.253996
                                 4                    9               0.119442
                                 4                   13               0.105596
             2   9.13559 eV
                                 3                    5              -0.951456
                                 3                    6               0.253996
                                 3                    9              -0.119442
                                 3                   13              -0.105596
             3  12.12039 eV
                                 4                    6              -0.945240
                                 4                    5              -0.255701
                                 4                   13               0.154467
                                 4                    9              -0.110376
             4  12.12039 eV
                                 3                    6               0.945240
                                 3                    5               0.255701
                                 3                   13              -0.154467
                                 3                    9               0.110376
             5  12.29654 eV
                                 2                    5              -0.821475
                                 2                    6               0.332843
                                 4                    7              -0.287097
                                 3                    8              -0.287097
                                 2                   13              -0.165665
                                 2                    9              -0.098672
                                 2                   18              -0.059245
             6  12.54054 eV
                                 4                    7              -0.639653
                                 3                    8              -0.639653
                                 2                    5               0.384936
                                 2                    6              -0.117202
                                 2                    9               0.071387
                                 4                   14               0.069169
                                 3                   15               0.069169
                                 2                   13               0.058731
             7  12.72200 eV
                                 3                    8              -0.617587
                                 4                    7               0.617587
                                 3                    7              -0.336963
                                 4                    8              -0.336963
                                 3                   15               0.056360
                                 4                   14              -0.056360
             8  12.72205 eV
                                 3                    7              -0.617588
                                 4                    8              -0.617588
                                 3                    8               0.336963
                                 4                    7              -0.336963
                                 3                   14               0.056350
                                 4                   15               0.056350
             9  12.99802 eV
                                 4                    8               0.705371
                                 3                    7              -0.705371
            10  13.24824 eV
                                 4                    9               0.981561
                                 4                    5              -0.150312
                                 4                    6              -0.072083
                                 4                   10              -0.052207
 -------------------------------------------------------------------------------
 
 -------------------------------------------------------------------------------
 -                            Natural Orbital analysis                         -
 -------------------------------------------------------------------------------
   STATE NR.      1             9.13559 eV
     Particle-Hole state: 1   Spin:1     Eigenvalue: 0.99937   Sum Eigv: 0.99937
   STATE NR.      2             9.13559 eV
     Particle-Hole state: 1   Spin:1     Eigenvalue: 0.99937   Sum Eigv: 0.99937
   STATE NR.      3            12.12039 eV
     Particle-Hole state: 1   Spin:1     Eigenvalue: 0.99903   Sum Eigv: 0.99903
   STATE NR.      4            12.12039 eV
     Particle-Hole state: 1   Spin:1     Eigenvalue: 0.99903   Sum Eigv: 0.99903
   STATE NR.      5            12.29654 eV
     Particle-Hole state: 1   Spin:1     Eigenvalue: 0.82838   Sum Eigv: 0.82838
     Particle-Hole state: 2   Spin:1     Eigenvalue: 0.08553   Sum Eigv: 0.91391
     Particle-Hole state: 3   Spin:1     Eigenvalue: 0.08553   Sum Eigv: 0.99943
   STATE NR.      6            12.54054 eV
     Particle-Hole state: 1   Spin:1     Eigenvalue: 0.41429   Sum Eigv: 0.41429
     Particle-Hole state: 2   Spin:1     Eigenvalue: 0.41429   Sum Eigv: 0.82858
     Particle-Hole state: 3   Spin:1     Eigenvalue: 0.17115   Sum Eigv: 0.99972
   STATE NR.      7            12.72200 eV
     Particle-Hole state: 1   Spin:1     Eigenvalue: 0.49998   Sum Eigv: 0.49998
     Particle-Hole state: 2   Spin:1     Eigenvalue: 0.49998   Sum Eigv: 0.99997
   STATE NR.      8            12.72205 eV
     Particle-Hole state: 1   Spin:1     Eigenvalue: 0.49998   Sum Eigv: 0.49998
     Particle-Hole state: 2   Spin:1     Eigenvalue: 0.49998   Sum Eigv: 0.99997
   STATE NR.      9            12.99802 eV
     Particle-Hole state: 1   Spin:1     Eigenvalue: 0.50000   Sum Eigv: 0.50000
     Particle-Hole state: 2   Spin:1     Eigenvalue: 0.50000   Sum Eigv: 1.00000
   STATE NR.     10            13.24824 eV
     Particle-Hole state: 1   Spin:1     Eigenvalue: 0.99932   Sum Eigv: 0.99932
 -------------------------------------------------------------------------------
 
                       triplet excitations finished                             
                                                                                
 -------------------------------------------------------------------------------
 -                      TDDFPT SINGLET ENERGIES                                -
 -------------------------------------------------------------------------------
 
 -------------------------------------------------------------------------------
 -                            TDDFPT Initial Guess                             -
 -------------------------------------------------------------------------------
          State         Occupied      ->      Virtual          Excitation
          number         orbital              orbital          energy (eV)
 -------------------------------------------------------------------------------
             1                4                    5             11.37234
             2                3                    5             11.37234
             3                4                    6             13.86231
             4                3                    6             13.86231
             5                4                    7             14.61951
             6                3                    7             14.61951
             7                4                    8             14.61951
             8                3                    8             14.61951
             9                4                    9             14.94794
            10                3                    9             14.94794

      Number of active states:                                        160
 -------------------------------------------------------------------------------
 
 -------------------------------------------------------------------------------
 -                      TDDFPT WAVEFUNCTION OPTIMIZATION                       -
 -------------------------------------------------------------------------------

          Step            Time         Convergence           Conv. states
 -------------------------------------------------------------------------------

    State    Exc. energy (eV)      Convergence (eV)
        1       9.6713832            -1.7010E+00
        2       9.6713832            -1.7010E+00
        3      12.4029888            -1.4593E+00
        4      12.4029888            -1.4593E+00
        5      12.9979351            -1.6216E+00
        6      12.9979415            -1.6216E+00
        7      13.0393372            -1.5802E+00
        8      13.4870421            -1.1325E+00
        9      13.4870421            -1.4609E+00
       10      14.5554057            -3.9253E-01
 
             1           478.3          6.2509E-02                      0

    State    Exc. energy (eV)      Convergence (eV)
        1       9.6278676            -4.3516E-02
        2       9.6278676            -4.3516E-02
        3      12.3219146            -8.1074E-02
        4      12.3219146            -8.1074E-02
        5      12.9676957            -3.0239E-02
        6      12.9677121            -3.0229E-02
        7      12.9981612            -4.1176E-02
        8      13.3442351            -1.4281E-01
        9      13.4626541            -2.4388E-02
       10      13.4626541            -1.0928E+00
 
             2           489.2          4.0158E-02                      0

    State    Exc. energy (eV)      Convergence (eV)
        1       9.6273392            -5.2841E-04
        2       9.6273392            -5.2841E-04
        3      12.3215993            -3.1529E-04
        4      12.3215993            -3.1529E-04
        5      12.9675539            -1.4176E-04
        6      12.9675704            -1.4167E-04
        7      12.9980206            -1.4056E-04
        8      13.2599603            -8.4275E-02
        9      13.4622426            -4.1143E-04
       10      13.4622427            -4.1143E-04
 
             3           478.7          3.0970E-03                      0

    State    Exc. energy (eV)      Convergence (eV)
        1       9.6273380            -1.1652E-06
        2       9.6273380            -1.1652E-06
        3      12.3215982            -1.1491E-06
        4      12.3215982            -1.1491E-06
        5      12.9675485            -5.4597E-06
        6      12.9675649            -5.4549E-06
        7      12.9980188            -1.8196E-06
        8      13.2539668            -5.9935E-03
        9      13.4622372            -5.4583E-06
       10      13.4622372            -5.4583E-06
 
             4           518.9          2.2026E-04                      0

[...]
 flops    14 x    14 x     4               457856       0.0%    100.0%      0.0%
 flops     4 x     4 x    14               916160       0.0%    100.0%      0.0%
 flops    14 x    30 x     4               981120       0.0%    100.0%      0.0%
 flops    14 x     4 x    14              1716960       0.0%    100.0%      0.0%
 flops     4 x     4 x    30              1963200       0.0%    100.0%      0.0%
 flops    30 x    30 x     4              2102400       0.0%    100.0%      0.0%
 flops    14 x     4 x    30              3679200       0.0%    100.0%      0.0%
 flops    30 x     4 x    14              3679200       0.0%    100.0%      0.0%
 flops    30 x     4 x    30              7884000       0.0%    100.0%      0.0%
 flops inhomo. stacks                           0       0.0%      0.0%      0.0%
 flops total                        24.601472E+06       0.0%    100.0%      0.0%
 flops max/rank                     18.106112E+06       0.0%    100.0%      0.0%
 matmuls inhomo. stacks                         0       0.0%      0.0%      0.0%
 matmuls total                               9593       0.0%    100.0%      0.0%
 number of processed stacks                  8793       0.0%    100.0%      0.0%
 average stack size                                     0.0       1.1       0.0
 marketing flops                    25.584000E+06
 -------------------------------------------------------------------------------
 # multiplications                           1459
 max memory usage/rank               1.452618E+09
 # max total images/rank                        2
 # max 3D layers                                1
 # MPI messages exchanged                 5415808
 MPI messages size (bytes):
  total size                       250.809344E+06
  min size                           0.000000E+00
  max size                          10.560000E+03
  average size                      46.310604E+00
 MPI breakdown and total messages size (bytes):
             size <=      128             5352456                   312064
       128 < size <=     8192               49072                 99700480
      8192 < size <=    32768               14280                150796800
     32768 < size <=   131072                   0                        0
    131072 < size <=  4194304                   0                        0
   4194304 < size <= 16777216                   0                        0
  16777216 < size                               0                        0
 -------------------------------------------------------------------------------

 *** WARNING in dbcsr_mm.F:291 :: Using a non-square number of MPI ranks ***
 *** might lead to poor performance. Used ranks: 128 Suggested: 121 256  ***

 -------------------------------------------------------------------------------
 -                                                                             -
 -                      DBCSR MESSAGE PASSING PERFORMANCE                      -
 -                                                                             -
 -------------------------------------------------------------------------------
 ROUTINE             CALLS      AVE VOLUME [Bytes]
 MP_Bcast               22                     12.
 MP_Allreduce         5932                      8.
 MP_Alltoall         27558                  37054.
 MP_ISend            92846                    278.
 MP_IRecv            90398                    114.
 -------------------------------------------------------------------------------

 -------------------------------------------------------------------------------
 -                                                                             -
 -                                DBM STATISTICS                               -
 -                                                                             -
 -------------------------------------------------------------------------------
    M  x    N  x    K                                          COUNT     PERCENT
 -------------------------------------------------------------------------------

 -------------------------------------------------------------------------------
 -                                                                             -
 -                                GRID STATISTICS                              -
 -                                                                             -
 -------------------------------------------------------------------------------
 LP    KERNEL             BACKEND                              COUNT     PERCENT
 1     collocate ortho    CPU                                  16632      18.03%
 1     integrate ortho    CPU                                  16308      17.67%
 2     collocate ortho    CPU                                  14938      16.19%
 2     integrate ortho    CPU                                  14647      15.87%
 0     collocate ortho    CPU                                   8778       9.51%
 0     integrate ortho    CPU                                   8607       9.33%
 3     collocate ortho    CPU                                   5236       5.67%
 3     integrate ortho    CPU                                   5134       5.56%
 4     collocate ortho    CPU                                    616       0.67%
 4     integrate ortho    CPU                                    604       0.65%
 0     collocate general  CPU                                    512       0.55%
 0     integrate general  CPU                                    256       0.28%
 -------------------------------------------------------------------------------

 MEMORY| Estimated peak process memory [MiB]                                1386

 -------------------------------------------------------------------------------
 ----                             MULTIGRID INFO                            ----
 -------------------------------------------------------------------------------
 count for grid        1:        2094177          cutoff [a.u.]          600.00
 count for grid        2:        1230170          cutoff [a.u.]          200.00
 count for grid        3:         765498          cutoff [a.u.]           66.67
 count for grid        4:         444200          cutoff [a.u.]           22.22
 count for grid        5:          35855          cutoff [a.u.]            7.41
 total gridlevel count  :        4569900

 -------------------------------------------------------------------------------
 -                                                                             -
 -                         MESSAGE PASSING PERFORMANCE                         -
 -                                                                             -
 -------------------------------------------------------------------------------

 ROUTINE             CALLS      AVE VOLUME [Bytes]
 MP_Group                6
 MP_Bcast              240                1458277.
 MP_Allreduce         5726                   1379.
 MP_Sync              1532
 MP_Alltoall          3974               18215697.
 MP_SendRecv         58674                 127152.
 MP_ISendRecv       131699                  61473.
 MP_Wait            161000
 MP_comm_split          69
 MP_ISend            23904                 526265.
 MP_IRecv            26544                 473873.
 -------------------------------------------------------------------------------


 -------------------------------------------------------------------------------
 -                                                                             -
 -                           R E F E R E N C E S                               -
 -                                                                             -
 -------------------------------------------------------------------------------
 
 CP2K version 2024.1 (Development Version), the CP2K developers group (2024).
 CP2K is freely available from https://www.cp2k.org/ .

 Kuehne,Thomas D.; Iannuzzi,Marcella; Del Ben,Mauro;
 Rybkin,Vladimir V.; Seewald,Patrick; Stein,Frederick; Laino,Teodoro;
 Khaliullin,Rustam Z.; Schuett,Ole; Schiffmann,Florian; Golze,Dorothea;
 Wilhelm,Jan; Chulkov,Sergey; Bani-Hashemian,Mohammad Hossein;
 Weber,Valery; Borstnik,Urban; Taillefumier,Mathieu;
 Jakobovits,Alice Shoshana; Lazzaro,Alfio; Pabst,Hans; Mueller,Tiziano;
 Schade,Robert; Guidon,Manuel; Andermatt,Samuel; Holmberg,Nico;
 Schenter,Gregory K.; Hehn,Anna; Bussy,Augustin; Belleflamme,Fabian;
 Tabacchi,Gloria; Gloess,Andreas; Lass,Michael; Bethune,Iain;
 Mundy,Christopher J.; Plessl,Christian; Watkins,Matt;
 VandeVondele,Joost; Krack,Matthias; Hutter,Juerg. 
 The Journal of Chemical Physics, 152 (19), (2020). 
 CP2K: An electronic structure and molecular dynamics software package -
 Quickstep: Efficient and accurate electronic structure calculations.
 https://doi.org/10.1063/5.0007045

 Schuett, Ole; Messmer, Peter; Hutter, Juerg; VandeVondele, Joost. 
 Electronic Structure Calculations on Graphics Processing Units, John
 Wiley & Sons, Ltd, 173-190 (2016). 
 GPU-Accelerated Sparse Matrix-Matrix Multiplication for
 Linear Scaling Density Functional Theory.
 https://doi.org/10.1002/9781118670712.ch8

 Heinecke, A; Henry, G; Hutchinson, M; Pabst, H. 
 Proceedings of Intl. Supercomputing Conference, 981-991 (2016). 
 LIBXSMM: Accelerating Small Matrix Multiplications
 by Runtime Code Generation.
 https://doi.org/10.1109/SC.2016.83

 Borstnik, U; VandeVondele, J; Weber, V; Hutter, J. 
 PARALLEL COMPUTING, 40 (5-6), 47-58 (2014). 
 Sparse matrix multiplication: The distributed block-compressed sparse
 row library.
 https://doi.org/10.1016/j.parco.2014.03.012

 Hutter, J; Iannuzzi, M; Schiffmann, F; VandeVondele, J. 
 WIREs Comput Mol Sci., 4 (1), 15-25 (2014). 
 CP2K: atomistic simulations of condensed matter systems.
 https://doi.org/10.1002/wcms.1159

 Guidon, M; Hutter, J; VandeVondele, J. 
 JOURNAL OF CHEMICAL THEORY AND COMPUTATION, 5 (11), 3010-3021 (2009). 
 Robust Periodic Hartree-Fock Exchange for Large-Scale Simulations Using
 Gaussian Basis Sets.
 https://doi.org/10.1021/ct900494g

 Guidon, M; Schiffmann, F; Hutter, J; VandeVondele, J. 
 JOURNAL OF CHEMICAL PHYSICS, 128 (21), 214104 (2008). 
 Ab initio molecular dynamics using hybrid density functionals.
 https://doi.org/10.1063/1.2931945

 Krack, M. 
 THEORETICAL CHEMISTRY ACCOUNTS, 114 (1-3), 145-152 (2005). 
 Pseudopotentials for H to Kr optimized for gradient-corrected
 exchange-correlation functionals.
 https://doi.org/10.1007/s00214-005-0655-y

 VandeVondele, J; Krack, M; Mohamed, F; Parrinello, M; Chassaing, T;
 Hutter, J. COMPUTER PHYSICS COMMUNICATIONS, 167 (2), 103-128 (2005). 
 QUICKSTEP: Fast and accurate density functional calculations using a
 mixed Gaussian and plane waves approach.
 https://doi.org/10.1016/j.cpc.2004.12.014

 Frigo, M; Johnson, SG. 
 PROCEEDINGS OF THE IEEE, 93 (2), 216-231 (2005). 
 The design and implementation of FFTW3.
 https://doi.org/10.1109/JPROC.2004.840301

 Iannuzzi, M; Chassaing, T; Wallman, T; Hutter, J. 
 CHIMIA, 59 (7-8), 499-503 (2005). 
 Ground and excited state density functional calculations with the
 Gaussian and augmented-plane-wave method.
 https://doi.org/10.2533/000942905777676164

 VandeVondele, J; Hutter, J. 
 JOURNAL OF CHEMICAL PHYSICS, 118 (10), 4365-4369 (2003). 
 An efficient orbital transformation method for electronic structure
 calculations.
 https://doi.org/10.1063/1.1543154

 Martin,Richard L.. 
 The Journal of Chemical Physics, 118 (11), 4775-4777 (2003). 
 Natural transition orbitals.
 https://doi.org/10.1063/1.1558471

 Martyna, GJ; Tuckerman, ME. 
 JOURNAL OF CHEMICAL PHYSICS, 110 (6), 2810-2821 (1999). 
 A reciprocal space based method for treating long range interactions in
 ab initio and force-field-based calculations in clusters.
 https://doi.org/10.1063/1.477923

 Hartwigsen, C; Goedecker, S; Hutter, J. 
 PHYSICAL REVIEW B, 58 (7), 3641-3662 (1998). 
 Relativistic separable dual-space Gaussian pseudopotentials from H to Rn.
 https://doi.org/10.1103/PhysRevB.58.3641

 Lippert, G; Hutter, J; Parrinello, M. 
 MOLECULAR PHYSICS, 92 (3), 477-487 (1997). 
 A hybrid Gaussian and plane wave density functional scheme.
 https://doi.org/10.1080/002689797170220

 Perdew, JP; Burke, K; Ernzerhof, M. 
 PHYSICAL REVIEW LETTERS, 77 (18), 3865-3868 (1996). 
 Generalized gradient approximation made simple.
 https://doi.org/10.1103/PhysRevLett.77.3865

 Goedecker, S; Teter, M; Hutter, J. 
 PHYSICAL REVIEW B, 54 (3), 1703-1710 (1996). 
 Separable dual-space Gaussian pseudopotentials.
 https://doi.org/10.1103/PhysRevB.54.1703


 -------------------------------------------------------------------------------
 -                                                                             -
 -                                T I M I N G                                  -
 -                                                                             -
 -------------------------------------------------------------------------------
 SUBROUTINE                       CALLS  ASD         SELF TIME        TOTAL TIME
                                MAXIMUM       AVERAGE  MAXIMUM  AVERAGE  MAXIMUM
 CP2K                                 1  1.0    4.344    4.462 8361.403 8361.474
 qs_energies                          1  2.0    0.014    0.062 8302.209 8302.268
 qs_energies_properties               1  3.0    0.000    0.013 7637.890 7637.956
 tddfpt                               1  4.0    0.022    0.079 7637.890 7637.956
 tddfpt_soc_energies                  1  5.0    0.001    0.012 7611.291 7611.352
 tddfpt_energies                      2  6.0    0.001    0.013 7527.487 7527.583
 tddfpt_davidson_solver               4  7.0    0.034    0.129 7000.437 7000.496
 tddfpt_compute_Aop_evects           14  8.0    0.013    0.078 6224.970 6225.198
 fhxc_kernel                         14  9.0    0.018    0.066 4226.469 4226.666
 mp_waitall_1                    297864 14.4 2254.130 2286.143 2254.130 2286.143
 qs_rho_update_rho_low              154  9.6    0.006    0.047 1901.841 1903.882
 calculate_rho_elec                 154 10.6    0.320    0.537 1901.834 1903.881
 density_rs2pw                      154 11.6    0.016    0.047 1878.010 1880.966
 cp_dbcsr_sm_fm_multiply            883  9.5    0.011    0.023 1728.413 1738.153
 integrate_v_rspace                 151  9.9    0.007    0.031 1719.210 1722.369
 tddfpt_apply_hfx                    14  9.0    0.002    0.012 1701.208 1701.300
 potential_pw2rs                    151 10.9    0.037    0.065 1677.073 1688.179
 transfer_rs2pw                     772 12.6    0.009    0.045 1654.367 1664.782
 transfer_pw2rs                     756 11.9    0.005    0.018 1535.507 1545.769
 dbcsr_complete_redistribute       2835 11.5    0.066    0.138 1387.901 1412.102
 mp_sendrecv_dv                   58674 14.6 1260.102 1293.293 1260.102 1293.293
 integrate_four_center              291 10.9    0.091    0.148 1080.961 1084.045
 tddft_hfx_matrix                   280 10.0    0.010    0.032 1011.879 1014.943
 copy_dbcsr_to_fm                   941 10.4    0.007    0.008  984.485  999.040
 transfer_pw2rs_70                  151 12.9    3.969    4.901  820.673  855.775
 transfer_rs2pw_70                  154 13.6    2.575    4.099  720.929  754.821
 dbcsr_multiply_generic            1459 11.1    0.052    0.099  720.530  734.839
 pw_transfer                       3203 12.4    0.258    0.375  695.105  707.587
 fft_wrap_pw1pw2                   3041 13.4    0.029    0.080  694.164  706.676
 copy_fm_to_dbcsr                  1890 10.6    0.009    0.056  652.857  677.208
 fft3d_ps                          3041 15.4   69.274   75.631  657.365  671.445
 mp_waitany                       23904 14.2  618.645  653.256  618.645  653.256
 mp_alltoall_d11v                 11675 12.8  602.201  645.243  602.201  645.243
 scf_env_do_scf                       1  3.0    0.001    0.022  637.378  637.395
 scf_env_do_scf_inner_loop           11  4.0    0.005    0.034  564.802  564.857
 integrate_four_center_getP         291 11.9    0.037    0.065  547.382  550.199
 tddfpt_orthonormalize_psi1_psi      16  7.9    0.009    0.048  512.036  513.409
 integrate_four_center_dist_KS      291 11.9    0.032    0.075  496.861  497.409
 mp_alltoall_i11v                  9480 12.5  495.673  496.625  495.673  496.625
 mp_alltoall_z22v                  3041 17.4  473.546  486.938  473.546  486.938
 fft_wrap_pw1pw2_600               1820 14.6    6.594    8.250  471.780  484.545
 tddfpt_print_nto_analysis            2  7.0    0.011    0.038  438.455  438.628
 cp_fm_syevd                         69  9.0    0.009    0.040  437.661  438.293
 cp_dbcsr_sm_fm_multiply_core       883 10.5    0.001    0.014  357.387  370.461
 mp_sum_l                          5853 11.3  336.488  349.418  336.488  349.418
 cp_fm_redistribute_end              69 10.0  194.246  345.857  197.607  348.190
 tddfpt_apply_xc_analytic           140 10.0    1.130    1.800  339.843  341.437
 mp_cart_sub                       1890 12.4  305.211  306.590  305.211  306.590
 cp_fm_syevd_base                    69 10.0  148.381  298.787  148.381  298.787
 transfer_rs2pw_30                  154 13.6    0.318    0.400  289.770  298.600
 tddfpt_apply_energy_diff            14  9.0    0.000    0.001  297.280  297.390
 xc_pw_derive                      1125 11.7    0.027    0.065  288.422  292.223
 cp_dbcsr_plus_fm_fm_t_native       141 10.0    0.004    0.029  283.524  285.352
 dbcsr_desymmetrize_deep            945 11.4    0.014    0.044  251.902  265.977
 transfer_rs2pw_10                  154 13.6    0.072    0.087  252.369  263.677
 cp_fm_geeig                         20  8.0    0.008    0.037  258.414  258.814
 transfer_pw2rs_30                  151 12.9    0.436    0.525  232.373  243.925
 yz_to_x                           1071 17.0    5.513    6.752  226.942  241.700
 transfer_pw2rs_200                 151 12.9    1.421    1.878  201.459  236.861
 mp_sync                           1532 12.6  210.935  236.109  210.935  236.109
 x_to_yz                           1360 16.1    9.128   13.092  229.709  232.857
 qs_ks_update_qs_env                 12  5.0    0.000    0.013  232.360  232.531
 qs_scf_new_mos                      11  5.0    0.000    0.000  231.592  231.771
 qs_scf_loop_do_ot                   11  6.0    0.000    0.000  231.592  231.771
 rebuild_ks_matrix                   11  6.0    0.008    0.044  230.909  231.041
 qs_ks_build_kohn_sham_matrix        11  7.0    0.009    0.036  230.901  231.041
 mp_sum_dv                         4002 10.1  226.945  229.853  226.945  229.853
 cp_fm_trace_a1b1t1_aa             3880  9.0    0.006    0.008  224.585  227.310
 ot_scf_mini                         11  7.0    0.000    0.013  224.410  224.524
 transfer_pw2rs_10                  151 12.9    0.104    0.126  217.129  222.295
 mp_alltoall_i22                   3790 12.5  196.337  221.824  196.337  221.824
 transfer_rs2pw_200                 154 13.6    1.137    1.391  203.808  217.425
 multiply_cannon                   1459 12.1    0.072    0.094  190.722  198.568
 transfer_rs2pw_600                 156 13.5    4.051    4.902  187.482  190.781
 tddfpt_compute_residual_vects       10  8.0    0.000    0.000  186.709  187.167
 xc_calc_2nd_deriv_analytical       140 11.0   25.530   29.379  174.516  175.099
 -------------------------------------------------------------------------------

 The number of warnings for this run is : 1
 
 -------------------------------------------------------------------------------
  **** **** ******  **  PROGRAM ENDED AT                 2024-02-01 11:37:17.248
 ***** ** ***  *** **   PROGRAM RAN ON                               nesh-srp155
 **    ****   ******    PROGRAM RAN BY                                  suphc355
 ***** **    ** ** **   PROGRAM PROCESS ID                                378453
  **** **  *******  **  PROGRAM STOPPED IN /gxfs_work/cau/suphc355/homologes/HX/
                                           PP/F
