       2
 i =        1, E =      -199.4208755972
  F         3.3208044539        3.9999999987        3.9999999987
  F         4.6791955461        4.0000000013        4.0000000013
       2
 i =        2, E =      -199.4218903210
  F         3.3135683036        3.9999999982        3.9999999982
  F         4.6864316964        4.0000000018        4.0000000018
       2
 i =        3, E =      -199.4229856298
  F         3.2964534694        3.9999999968        3.9999999967
  F         4.7035465306        4.0000000032        4.0000000033
       2
 i =        4, E =      -199.4230078748
  F         3.2938411384        3.9999999965        3.9999999965
  F         4.7061588616        4.0000000035        4.0000000035
       2
 i =        5, E =      -199.4230081691
  F         3.2935082407        3.9999999965        3.9999999964
  F         4.7064917593        4.0000000035        4.0000000036
       2
 i =        6, E =      -199.4230081692
  F         3.2935082407        3.9999999965        3.9999999964
  F         4.7064917593        4.0000000035        4.0000000036
