 DBCSR| CPU Multiplication driver                                           XSMM (U)
 DBCSR| Multrec recursion limit                                              512 (U)
 DBCSR| Multiplication stack size                                           1000 (D)
 DBCSR| Maximum elements for images                                    UNLIMITED (U)
 DBCSR| Multiplicative factor virtual images                                   1 (U)
 DBCSR| Use multiplication densification                                       T (D)
 DBCSR| Multiplication size stacks                                             3 (U)
 DBCSR| Use memory pool for CPU allocation                                     F (U)
 DBCSR| Number of 3D layers                                               SINGLE (U)
 DBCSR| Use MPI memory allocation                                              F (U)
 DBCSR| Use RMA algorithm                                                      F (U)
 DBCSR| Use Communication thread                                               T (U)
 DBCSR| Communication thread load                                             83 (D)
 DBCSR| MPI: My process id                                                     0
 DBCSR| MPI: Number of processes                                              64
 DBCSR| OMP: Current number of threads                                         2
 DBCSR| OMP: Max number of threads                                             2
 DBCSR| Split modifier for TAS multiplication algorithm                  1.0E+00 (U)


  **** **** ******  **  PROGRAM STARTED AT               2023-12-05 17:32:36.133
 ***** ** ***  *** **   PROGRAM STARTED ON                           nesh-clk429
 **    ****   ******    PROGRAM STARTED BY                              suphc355
 ***** **    ** ** **   PROGRAM PROCESS ID                               4114434
  **** **  *******  **  PROGRAM STARTED IN /gxfs_work/cau/suphc355/homologes/X2/
                                           opt/F

 CP2K| version string:                 CP2K version 2023.2 (Development Version)
 CP2K| source code revision number:                                  git:845a3ae
 CP2K| cp2kflags: omp libint fftw3 libxc parallel mpi_f08 scalapack cosma xsmm s
 CP2K|            pglib mkl
 CP2K| is freely available from                            https://www.cp2k.org/
 CP2K| Program compiled at                           Fr 1. Dez 12:58:35 CET 2023
 CP2K| Program compiled on                                           nesh-login3
 CP2K| Program compiled for                                                local
 CP2K| Data directory path            /gxfs_home/cau/suphc355/software/cp2k/data
 CP2K| Input file name                                                   opt.inp
 
 GLOBAL| Force Environment number                                              1
 GLOBAL| Basis set file name                                   ../../../basis_ae
 GLOBAL| Potential file name                                           POTENTIAL
 GLOBAL| MM Potential file name                                     MM_POTENTIAL
 GLOBAL| Coordinate file name                                          start.xyz
 GLOBAL| Method name                                                        CP2K
 GLOBAL| Project name                                                     F2_opt
 GLOBAL| Run type                                                        GEO_OPT
 GLOBAL| FFT library                                                       FFTW3
 GLOBAL| Diagonalization library                                       ScaLAPACK
 GLOBAL| DGEMM library                                                      BLAS
 GLOBAL| Orthonormality check for eigenvectors                          DISABLED
 GLOBAL| Matrix multiplication library                                     COSMA
 GLOBAL| All-to-all communication in single precision                          F
 GLOBAL| FFTs using library dependent lengths                                  F
 GLOBAL| Grid backend                                                       AUTO
 GLOBAL| Global print level                                               MEDIUM
 GLOBAL| MPI I/O enabled                                                       T
 GLOBAL| Total number of message passing processes                            64
 GLOBAL| Number of threads for this process                                    2
 GLOBAL| This output is from process                                           0
 GLOBAL| Stack size for threads created by OpenMP (OMP_STACKSIZE)        default
 GLOBAL| CPU model name                Intel(R) Xeon(R) Gold 6226R CPU @ 2.90GHz
 GLOBAL| CPUID                                                              1003

 MEMORY| system memory details [Kb]
 MEMORY|                        rank 0           min           max       average
 MEMORY| MemTotal            196683224     196683224     196683224     196683224
 MEMORY| MemFree             177360028     176864056     177360084     177112047
 MEMORY| Buffers                412548        412548        587188        499868
 MEMORY| Cached                1046976       1046976       1235704       1141340
 MEMORY| Slab                   465348        465348        573884        519616
 MEMORY| SReclaimable           123124        118812        123124        120968
 MEMORY| MemLikelyFree       178942676     178805760     178942732     178874223


 *** Fundamental physical constants (SI units) ***

 *** Literature: B. J. Mohr and B. N. Taylor,
 ***             CODATA recommended values of the fundamental physical
 ***             constants: 2006, Web Version 5.1
 ***             http://physics.nist.gov/constants

 Speed of light in vacuum [m/s]                             2.99792458000000E+08
 Magnetic constant or permeability of vacuum [N/A**2]       1.25663706143592E-06
 Electric constant or permittivity of vacuum [F/m]          8.85418781762039E-12
 Planck constant (h) [J*s]                                  6.62606896000000E-34
 Planck constant (h-bar) [J*s]                              1.05457162825177E-34
 Elementary charge [C]                                      1.60217648700000E-19
 Electron mass [kg]                                         9.10938215000000E-31
 Electron g factor [ ]                                     -2.00231930436220E+00
 Proton mass [kg]                                           1.67262163700000E-27
 Fine-structure constant                                    7.29735253760000E-03
 Rydberg constant [1/m]                                     1.09737315685270E+07
 Avogadro constant [1/mol]                                  6.02214179000000E+23
 Boltzmann constant [J/K]                                   1.38065040000000E-23
 Atomic mass unit [kg]                                      1.66053878200000E-27
 Bohr radius [m]                                            5.29177208590000E-11

 *** Conversion factors ***

 [u] -> [a.u.]                                              1.82288848426455E+03
 [Angstrom] -> [Bohr] = [a.u.]                              1.88972613288564E+00
 [a.u.] = [Bohr] -> [Angstrom]                              5.29177208590000E-01
 [a.u.] -> [s]                                              2.41888432650478E-17
 [a.u.] -> [fs]                                             2.41888432650478E-02
 [a.u.] -> [J]                                              4.35974393937059E-18
 [a.u.] -> [N]                                              8.23872205491840E-08
 [a.u.] -> [K]                                              3.15774647902944E+05
 [a.u.] -> [kJ/mol]                                         2.62549961709828E+03
 [a.u.] -> [kcal/mol]                                       6.27509468713739E+02
 [a.u.] -> [Pa]                                             2.94210107994716E+13
 [a.u.] -> [bar]                                            2.94210107994716E+08
 [a.u.] -> [atm]                                            2.90362800883016E+08
 [a.u.] -> [eV]                                             2.72113838565563E+01
 [a.u.] -> [Hz]                                             6.57968392072181E+15
 [a.u.] -> [1/cm] (wave numbers)                            2.19474631370540E+05
 [a.u./Bohr**2] -> [1/cm]                                   5.14048714338585E+03
 

 CELL_TOP| Volume [angstrom^3]:                                       512.000000
 CELL_TOP| Vector a [angstrom     8.000     0.000     0.000   |a| =     8.000000
 CELL_TOP| Vector b [angstrom     0.000     8.000     0.000   |b| =     8.000000
 CELL_TOP| Vector c [angstrom     0.000     0.000     8.000   |c| =     8.000000
 CELL_TOP| Angle (b,c), alpha [degree]:                                90.000000
 CELL_TOP| Angle (a,c), beta  [degree]:                                90.000000
 CELL_TOP| Angle (a,b), gamma [degree]:                                90.000000
 CELL_TOP| Numerically orthorhombic:                                         YES
 CELL_TOP| Periodicity                                                      NONE
 
 GENERATE|  Preliminary Number of Bonds generated:                             0
 GENERATE|  Achieved consistency in connectivity generation.

 CELL| Volume [angstrom^3]:                                           512.000000
 CELL| Vector a [angstrom]:       8.000     0.000     0.000   |a| =     8.000000
 CELL| Vector b [angstrom]:       0.000     8.000     0.000   |b| =     8.000000
 CELL| Vector c [angstrom]:       0.000     0.000     8.000   |c| =     8.000000
 CELL| Angle (b,c), alpha [degree]:                                    90.000000
 CELL| Angle (a,c), beta  [degree]:                                    90.000000
 CELL| Angle (a,b), gamma [degree]:                                    90.000000
 CELL| Numerically orthorhombic:                                             YES
 CELL| Periodicity                                                          NONE

 CELL_REF| Volume [angstrom^3]:                                       512.000000
 CELL_REF| Vector a [angstrom     8.000     0.000     0.000   |a| =     8.000000
 CELL_REF| Vector b [angstrom     0.000     8.000     0.000   |b| =     8.000000
 CELL_REF| Vector c [angstrom     0.000     0.000     8.000   |c| =     8.000000
 CELL_REF| Angle (b,c), alpha [degree]:                                90.000000
 CELL_REF| Angle (a,c), beta  [degree]:                                90.000000
 CELL_REF| Angle (a,b), gamma [degree]:                                90.000000
 CELL_REF| Numerically orthorhombic:                                         YES
 CELL_REF| Periodicity                                                      NONE

 *******************************************************************************
 *   ___                                                                       *
 *  /   \                                                                      *
 * [ABORT]  No &KIND section was possible to associate to the atomic kind <X>. *
 *  \___/    The KIND section were also scanned for the corresponding element  *
 *    |     <X> and for the DEFAULT section but no match was found. Check your *
 *  O/|                                 input file!                            *
 * /| |                                                                        *
 * / \                                                    qs_kind_types.F:1612 *
 *******************************************************************************


 ===== Routine Calling Stack ===== 

            3 read_qs_kind
            2 create_qs_kind_set
            1 CP2K
 DBCSR| CPU Multiplication driver                                           XSMM (U)
 DBCSR| Multrec recursion limit                                              512 (U)
 DBCSR| Multiplication stack size                                           1000 (D)
 DBCSR| Maximum elements for images                                    UNLIMITED (U)
 DBCSR| Multiplicative factor virtual images                                   1 (U)
 DBCSR| Use multiplication densification                                       T (D)
 DBCSR| Multiplication size stacks                                             3 (U)
 DBCSR| Use memory pool for CPU allocation                                     F (U)
 DBCSR| Number of 3D layers                                               SINGLE (U)
 DBCSR| Use MPI memory allocation                                              F (U)
 DBCSR| Use RMA algorithm                                                      F (U)
 DBCSR| Use Communication thread                                               T (U)
 DBCSR| Communication thread load                                             83 (D)
 DBCSR| MPI: My process id                                                     0
 DBCSR| MPI: Number of processes                                              64
 DBCSR| OMP: Current number of threads                                         2
 DBCSR| OMP: Max number of threads                                             2
 DBCSR| Split modifier for TAS multiplication algorithm                  1.0E+00 (U)


  **** **** ******  **  PROGRAM STARTED AT               2023-12-05 17:33:55.986
 ***** ** ***  *** **   PROGRAM STARTED ON                           nesh-clk431
 **    ****   ******    PROGRAM STARTED BY                              suphc355
 ***** **    ** ** **   PROGRAM PROCESS ID                               4123892
  **** **  *******  **  PROGRAM STARTED IN /gxfs_work/cau/suphc355/homologes/X2/
                                           opt/F

 CP2K| version string:                 CP2K version 2023.2 (Development Version)
 CP2K| source code revision number:                                  git:845a3ae
 CP2K| cp2kflags: omp libint fftw3 libxc parallel mpi_f08 scalapack cosma xsmm s
 CP2K|            pglib mkl
 CP2K| is freely available from                            https://www.cp2k.org/
 CP2K| Program compiled at                           Fr 1. Dez 12:58:35 CET 2023
 CP2K| Program compiled on                                           nesh-login3
 CP2K| Program compiled for                                                local
 CP2K| Data directory path            /gxfs_home/cau/suphc355/software/cp2k/data
 CP2K| Input file name                                                   opt.inp
 
 GLOBAL| Force Environment number                                              1
 GLOBAL| Basis set file name                                   ../../../basis_ae
 GLOBAL| Potential file name                                           POTENTIAL
 GLOBAL| MM Potential file name                                     MM_POTENTIAL
 GLOBAL| Coordinate file name                                          start.xyz
 GLOBAL| Method name                                                        CP2K
 GLOBAL| Project name                                                     F2_opt
 GLOBAL| Run type                                                        GEO_OPT
 GLOBAL| FFT library                                                       FFTW3
 GLOBAL| Diagonalization library                                       ScaLAPACK
 GLOBAL| DGEMM library                                                      BLAS
 GLOBAL| Orthonormality check for eigenvectors                          DISABLED
 GLOBAL| Matrix multiplication library                                     COSMA
 GLOBAL| All-to-all communication in single precision                          F
 GLOBAL| FFTs using library dependent lengths                                  F
 GLOBAL| Grid backend                                                       AUTO
 GLOBAL| Global print level                                               MEDIUM
 GLOBAL| MPI I/O enabled                                                       T
 GLOBAL| Total number of message passing processes                            64
 GLOBAL| Number of threads for this process                                    2
 GLOBAL| This output is from process                                           0
 GLOBAL| Stack size for threads created by OpenMP (OMP_STACKSIZE)        default
 GLOBAL| CPU model name                Intel(R) Xeon(R) Gold 6226R CPU @ 2.90GHz
 GLOBAL| CPUID                                                              1003

 MEMORY| system memory details [Kb]
 MEMORY|                        rank 0           min           max       average
 MEMORY| MemTotal            196683224     196680344     196683224     196681784
 MEMORY| MemFree             177438496     176739088     177438496     177088792
 MEMORY| Buffers                403752        403752        683088        543420
 MEMORY| Cached                 986200        986196       1160464       1073330
 MEMORY| Slab                   470028        470028        500608        485318
 MEMORY| SReclaimable           136060        136060        148208        142134
 MEMORY| MemLikelyFree       178964508     178730848     178964508     178847676


 *** Fundamental physical constants (SI units) ***

 *** Literature: B. J. Mohr and B. N. Taylor,
 ***             CODATA recommended values of the fundamental physical
 ***             constants: 2006, Web Version 5.1
 ***             http://physics.nist.gov/constants

 Speed of light in vacuum [m/s]                             2.99792458000000E+08
 Magnetic constant or permeability of vacuum [N/A**2]       1.25663706143592E-06
 Electric constant or permittivity of vacuum [F/m]          8.85418781762039E-12
 Planck constant (h) [J*s]                                  6.62606896000000E-34
 Planck constant (h-bar) [J*s]                              1.05457162825177E-34
 Elementary charge [C]                                      1.60217648700000E-19
 Electron mass [kg]                                         9.10938215000000E-31
 Electron g factor [ ]                                     -2.00231930436220E+00
 Proton mass [kg]                                           1.67262163700000E-27
 Fine-structure constant                                    7.29735253760000E-03
 Rydberg constant [1/m]                                     1.09737315685270E+07
 Avogadro constant [1/mol]                                  6.02214179000000E+23
 Boltzmann constant [J/K]                                   1.38065040000000E-23
 Atomic mass unit [kg]                                      1.66053878200000E-27
 Bohr radius [m]                                            5.29177208590000E-11

 *** Conversion factors ***

 [u] -> [a.u.]                                              1.82288848426455E+03
 [Angstrom] -> [Bohr] = [a.u.]                              1.88972613288564E+00
 [a.u.] = [Bohr] -> [Angstrom]                              5.29177208590000E-01
 [a.u.] -> [s]                                              2.41888432650478E-17
 [a.u.] -> [fs]                                             2.41888432650478E-02
 [a.u.] -> [J]                                              4.35974393937059E-18
 [a.u.] -> [N]                                              8.23872205491840E-08
 [a.u.] -> [K]                                              3.15774647902944E+05
 [a.u.] -> [kJ/mol]                                         2.62549961709828E+03
 [a.u.] -> [kcal/mol]                                       6.27509468713739E+02
 [a.u.] -> [Pa]                                             2.94210107994716E+13
 [a.u.] -> [bar]                                            2.94210107994716E+08
 [a.u.] -> [atm]                                            2.90362800883016E+08
 [a.u.] -> [eV]                                             2.72113838565563E+01
 [a.u.] -> [Hz]                                             6.57968392072181E+15
 [a.u.] -> [1/cm] (wave numbers)                            2.19474631370540E+05
 [a.u./Bohr**2] -> [1/cm]                                   5.14048714338585E+03
 

 CELL_TOP| Volume [angstrom^3]:                                       512.000000
 CELL_TOP| Vector a [angstrom     8.000     0.000     0.000   |a| =     8.000000
 CELL_TOP| Vector b [angstrom     0.000     8.000     0.000   |b| =     8.000000
 CELL_TOP| Vector c [angstrom     0.000     0.000     8.000   |c| =     8.000000
 CELL_TOP| Angle (b,c), alpha [degree]:                                90.000000
 CELL_TOP| Angle (a,c), beta  [degree]:                                90.000000
 CELL_TOP| Angle (a,b), gamma [degree]:                                90.000000
 CELL_TOP| Numerically orthorhombic:                                         YES
 CELL_TOP| Periodicity                                                      NONE
 
 GENERATE|  Preliminary Number of Bonds generated:                             0
 GENERATE|  Achieved consistency in connectivity generation.

 CELL| Volume [angstrom^3]:                                           512.000000
 CELL| Vector a [angstrom]:       8.000     0.000     0.000   |a| =     8.000000
 CELL| Vector b [angstrom]:       0.000     8.000     0.000   |b| =     8.000000
 CELL| Vector c [angstrom]:       0.000     0.000     8.000   |c| =     8.000000
 CELL| Angle (b,c), alpha [degree]:                                    90.000000
 CELL| Angle (a,c), beta  [degree]:                                    90.000000
 CELL| Angle (a,b), gamma [degree]:                                    90.000000
 CELL| Numerically orthorhombic:                                             YES
 CELL| Periodicity                                                          NONE

 CELL_REF| Volume [angstrom^3]:                                       512.000000
 CELL_REF| Vector a [angstrom     8.000     0.000     0.000   |a| =     8.000000
 CELL_REF| Vector b [angstrom     0.000     8.000     0.000   |b| =     8.000000
 CELL_REF| Vector c [angstrom     0.000     0.000     8.000   |c| =     8.000000
 CELL_REF| Angle (b,c), alpha [degree]:                                90.000000
 CELL_REF| Angle (a,c), beta  [degree]:                                90.000000
 CELL_REF| Angle (a,b), gamma [degree]:                                90.000000
 CELL_REF| Numerically orthorhombic:                                         YES
 CELL_REF| Periodicity                                                      NONE

 *******************************************************************************
 *******************************************************************************
 **                                                                           **
 **     #####                         ##              ##                      **
 **    ##   ##            ##          ##              ##                      **
 **   ##     ##                       ##            ######                    **
 **   ##     ##  ##   ##  ##   #####  ##  ##   ####   ##    #####    #####    **
 **   ##     ##  ##   ##  ##  ##      ## ##   ##      ##   ##   ##  ##   ##   **
 **   ##  ## ##  ##   ##  ##  ##      ####     ###    ##   ######   ######    **
 **    ##  ###   ##   ##  ##  ##      ## ##      ##   ##   ##       ##        **
 **     #######   #####   ##   #####  ##  ##  ####    ##    #####   ##        **
 **           ##                                                    ##        **
 **                                                                           **
 **                                                ... make the atoms dance   **
 **                                                                           **
 **            Copyright (C) by CP2K developers group (2000-2023)             **
 **                      J. Chem. Phys. 152, 194103 (2020)                    **
 **                                                                           **
 *******************************************************************************

 DFT| Spin restricted Kohn-Sham (RKS) calculation                            RKS
 DFT| Multiplicity                                                             1
 DFT| Number of spin states                                                    1
 DFT| Charge                                                                   0
 DFT| Self-interaction correction (SIC)                                       NO
 DFT| Cutoffs: density                                              1.000000E-10
 DFT|          gradient                                             1.000000E-10
 DFT|          tau                                                  1.000000E-10
 DFT|          cutoff_smoothing_range                               0.000000E+00
 DFT| XC density smoothing                                                  NONE
 DFT| XC derivatives                                                          PW

 FUNCTIONAL| PBE:
 FUNCTIONAL| J.P.Perdew, K.Burke, M.Ernzerhof, Phys. Rev. Letter, vol. 77, n 18,
 FUNCTIONAL|  pp. 3865-3868, (1996) {spin unpolarized}                          


 QS| Method:                                                                GAPW
 QS| Density plane wave grid type                        NON-SPHERICAL FULLSPACE
 QS| Number of grid levels:                                                    5
 QS| Density cutoff [a.u.]:                                                600.0
 QS| Multi grid cutoff [a.u.]: 1) grid level                               600.0
 QS|                           2) grid level                               200.0
 QS|                           3) grid level                                66.7
 QS|                           4) grid level                                22.2
 QS|                           5) grid level                                 7.4
 QS| Grid level progression factor:                                          3.0
 QS| Relative density cutoff [a.u.]:                                        40.0
 QS| Interaction thresholds: eps_pgf_orb:                                1.0E-30
 QS|                         eps_filter_matrix:                          0.0E+00
 QS|                         eps_core_charge:                            1.0E-17
 QS|                         eps_rho_gspace:                             1.0E-15
 QS|                         eps_rho_rspace:                             1.0E-15
 QS|                         eps_gvg_rspace:                             3.2E-08
 QS|                         eps_ppl:                                    1.0E-02
 QS|                         eps_ppnl:                                   3.2E-10
 QS| GAPW|      One center basis from orbital basis primitives
 QS| GAPW|                   eps_fit:                                    1.0E-04
 QS| GAPW|                   eps_iso:                                    1.0E-12
 QS| GAPW|                   eps_svd:                                    1.0E-08
 QS| GAPW|                   eps_cpc:                                    1.0E-15
 QS| GAPW|   atom-r-grid: quadrature:                                     GC_LOG
 QS| GAPW|      atom-s-grid:  max l :                                          6
 QS| GAPW|      max_l_rho0 :                                                   2


 ATOMIC KIND INFORMATION

  1. Atomic kind: F                                     Number of atoms:       2

     Orbital Basis Set                                                 def2-TZVP

       Number of orbital shell sets:                                          11
       Number of orbital shells:                                              11
       Number of primitive Cartesian functions:                               20
       Number of Cartesian basis functions:                                   36
       Number of spherical basis functions:                                   31
       Norm type:                                                              2

       Normalised Cartesian orbitals:

                        Set   Shell   Orbital            Exponent    Coefficient

                          1       1    1s            35479.100441       1.035166
                                                      5318.472898       1.933117
                                                      1210.481098       3.308168
                                                       342.855181       5.190436
                                                       112.019432       7.145372
                                                        40.714740       7.785360

                          2       1    1s               16.039678       3.615646
                                                         6.503819       1.164999

                          3       1    1s                1.544048       0.987201

                          4       1    1s                0.612235       0.493286

                          5       1    1s                0.240280       0.244595

                          6       1    1px              80.233900       4.217408
                                                        18.594011       4.717426
                                                         5.686790       4.084910
                                                         1.951101       2.299897
                          6       1    1py              80.233900       4.217408
                                                        18.594011       4.717426
                                                         5.686790       4.084910
                                                         1.951101       2.299897
                          6       1    1pz              80.233900       4.217408
                                                        18.594011       4.717426
                                                         5.686790       4.084910
                                                         1.951101       2.299897

                          7       1    1px               0.669702       0.863559
                          7       1    1py               0.669702       0.863559
                          7       1    1pz               0.669702       0.863559

                          8       1    1px               0.216513       0.210521
                          8       1    1py               0.216513       0.210521
                          8       1    1pz               0.216513       0.210521

                          9       1    1dx2              3.107000      11.967589
                          9       1    1dxy              3.107000      20.728471
                          9       1    1dxz              3.107000      20.728471
                          9       1    1dy2              3.107000      11.967589
                          9       1    1dyz              3.107000      20.728471
                          9       1    1dz2              3.107000      11.967589

                         10       1    1dx2              0.855000       1.251267
                         10       1    1dxy              0.855000       2.167259
                         10       1    1dxz              0.855000       2.167259
                         10       1    1dy2              0.855000       1.251267
                         10       1    1dyz              0.855000       2.167259
                         10       1    1dz2              0.855000       1.251267

                         11       1    1fx3              1.917000       6.365818
                         11       1    1fx2y             1.917000      14.234401
                         11       1    1fx2z             1.917000      14.234401
                         11       1    1fxy2             1.917000      14.234401
                         11       1    1fxyz             1.917000      24.654706
                         11       1    1fxz2             1.917000      14.234401
                         11       1    1fy3              1.917000       6.365818
                         11       1    1fy2z             1.917000      14.234401
                         11       1    1fyz2             1.917000      14.234401
                         11       1    1fz3              1.917000       6.365818

       Atomic covalent radius [Angstrom]:                                  0.720

       Atomic van der Waals radius [Angstrom]:                             1.470

     The atoms of this atomic kind are PAW atoms (GAPW):
       Hard Gaussian function radius:                                      1.512
       Rho0 radius:                                                        1.512
       Maximum GTO radius used for PAW projector construction:            24.566

     GAPW Soft Basis Set                                          def2-TZVP_soft

       Number of orbital shell sets:                                          11
       Number of orbital shells:                                              11
       Number of primitive Cartesian functions:                                9
       Number of Cartesian basis functions:                                   36
       Number of spherical basis functions:                                   31
       Norm type:                                                              2

       Normalised Cartesian orbitals:

                        Set   Shell   Orbital            Exponent    Coefficient

                          1       1    1s         

                          2       1    1s         

                          3       1    1s                1.544048       0.987201

                          4       1    1s                0.612235       0.493286

                          5       1    1s                0.240280       0.244595

                          6       1    1px               1.951101       2.299897
                          6       1    1py               1.951101       2.299897
                          6       1    1pz               1.951101       2.299897

                          7       1    1px               0.669702       0.863559
                          7       1    1py               0.669702       0.863559
                          7       1    1pz               0.669702       0.863559

                          8       1    1px               0.216513       0.210521
                          8       1    1py               0.216513       0.210521
                          8       1    1pz               0.216513       0.210521

                          9       1    1dx2              3.107000      11.967589
                          9       1    1dxy              3.107000      20.728471
                          9       1    1dxz              3.107000      20.728471
                          9       1    1dy2              3.107000      11.967589
                          9       1    1dyz              3.107000      20.728471
                          9       1    1dz2              3.107000      11.967589

                         10       1    1dx2              0.855000       1.251267
                         10       1    1dxy              0.855000       2.167259
                         10       1    1dxz              0.855000       2.167259
                         10       1    1dy2              0.855000       1.251267
                         10       1    1dyz              0.855000       2.167259
                         10       1    1dz2              0.855000       1.251267

                         11       1    1fx3              1.917000       6.365818
                         11       1    1fx2y             1.917000      14.234401
                         11       1    1fx2z             1.917000      14.234401
                         11       1    1fxy2             1.917000      14.234401
                         11       1    1fxyz             1.917000      24.654706
                         11       1    1fxz2             1.917000      14.234401
                         11       1    1fy3              1.917000       6.365818
                         11       1    1fy2z             1.917000      14.234401
                         11       1    1fyz2             1.917000      14.234401
                         11       1    1fz3              1.917000       6.365818

     AE Potential information for                                            ALL

       Description:                                       All-electron potential
                                          Krack, Parrinello, PCCP 2, 2105 (2000)

       Gaussian exponent of the core charge distribution:              10.470541
       Electronic configuration (s p d ...):                           4   5   0


 MOLECULE KIND INFORMATION


 All atoms are their own molecule, skipping detailed information


 TOTAL NUMBERS AND MAXIMUM NUMBERS

  Total number of            - Atomic kinds:                                   1
                             - Atoms:                                          2
                             - Shell sets:                                    22
                             - Shells:                                        22
                             - Primitive Cartesian functions:                 40
                             - Cartesian basis functions:                     72
                             - Spherical basis functions:                     62

  Maximum angular momentum of the orbital basis functions:                     3


 MODULE QUICKSTEP: ATOMIC COORDINATES IN ANGSTROM

   Atom Kind Element         X             Y             Z       Z(eff)     Mass
      1    1 F     9      3.500000      4.000000      4.000000   9.0000  18.9984
      2    1 F     9      4.500000      4.000000      4.000000   9.0000  18.9984



 SCF PARAMETERS         Density guess:                                    ATOMIC
                        --------------------------------------------------------
                        max_scf:                                              20
                        max_scf_history:                                       0
                        max_diis:                                              4
                        --------------------------------------------------------
                        eps_scf:                                        1.00E-08
                        eps_scf_history:                                0.00E+00
                        eps_diis:                                       1.00E-01
                        eps_eigval:                                     1.00E-05
                        --------------------------------------------------------
                        level_shift [a.u.]:                             0.000000
                        --------------------------------------------------------
                        Outer loop SCF in use 
                        No variables optimised in outer loop
                        eps_scf                                         1.00E-08
                        max_scf                                               50
                        No outer loop optimization
                        step_size                                       5.00E-01

 PW_GRID| Information for grid number                                          1
 PW_GRID| Grid distributed over                                    64 processors
 PW_GRID| Real space group dimensions                                    64    1
 PW_GRID| the grid is blocked:                                                NO
 PW_GRID| Cutoff [a.u.]                                                   1200.0
 PW_GRID| spherical cutoff:                                                   NO
 PW_GRID|   Bounds   1           -120     119                Points:         240
 PW_GRID|   Bounds   2           -120     119                Points:         240
 PW_GRID|   Bounds   3           -120     119                Points:         240
 PW_GRID| Volume element (a.u.^3)  0.2499E-03     Volume (a.u.^3)      3455.1473
 PW_GRID| Grid span                                                    FULLSPACE
 PW_GRID|   Distribution                         Average         Max         Min
 PW_GRID|   G-Vectors                           216000.0      216000      216000
 PW_GRID|   G-Rays                                 900.0         900         900
 PW_GRID|   Real Space Points                   216000.0      230400      172800

 PW_GRID| Information for grid number                                          2
 PW_GRID| Number of the reference grid                                         1
 PW_GRID| Grid distributed over                                    64 processors
 PW_GRID| Real space group dimensions                                    64    1
 PW_GRID| the grid is blocked:                                                NO
 PW_GRID| Cutoff [a.u.]                                                    600.0
 PW_GRID| spherical cutoff:                                                   NO
 PW_GRID|   Bounds   1            -90      89                Points:         180
 PW_GRID|   Bounds   2            -90      89                Points:         180
 PW_GRID|   Bounds   3            -90      89                Points:         180
 PW_GRID| Volume element (a.u.^3)  0.5924E-03     Volume (a.u.^3)      3455.1473
 PW_GRID| Grid span                                                    FULLSPACE
 PW_GRID|   Distribution                         Average         Max         Min
 PW_GRID|   G-Vectors                            91125.0       91440       90720
 PW_GRID|   G-Rays                                 506.2         508         504
 PW_GRID|   Real Space Points                    91125.0       97200       64800

 PW_GRID| Information for grid number                                          3
 PW_GRID| Number of the reference grid                                         2
 PW_GRID| Grid distributed over                                    64 processors
 PW_GRID| Real space group dimensions                                    64    1
 PW_GRID| the grid is blocked:                                                NO
 PW_GRID| Cutoff [a.u.]                                                    200.0
 PW_GRID| spherical cutoff:                                                   NO
 PW_GRID|   Bounds   1            -50      49                Points:         100
 PW_GRID|   Bounds   2            -50      49                Points:         100
 PW_GRID|   Bounds   3            -50      49                Points:         100
 PW_GRID| Volume element (a.u.^3)  0.3455E-02     Volume (a.u.^3)      3455.1473
 PW_GRID| Grid span                                                    FULLSPACE
 PW_GRID|   Distribution                         Average         Max         Min
 PW_GRID|   G-Vectors                            15625.0       15800       15500
 PW_GRID|   G-Rays                                 156.2         158         155
 PW_GRID|   Real Space Points                    15625.0       20000       10000

 PW_GRID| Information for grid number                                          4
 PW_GRID| Number of the reference grid                                         2
 PW_GRID| Grid distributed over                                    64 processors
 PW_GRID| Real space group dimensions                                     8    8
 PW_GRID| the grid is blocked:                                                NO
 PW_GRID| Cutoff [a.u.]                                                     66.7
 PW_GRID| spherical cutoff:                                                   NO
 PW_GRID|   Bounds   1            -30      29                Points:          60
 PW_GRID|   Bounds   2            -30      29                Points:          60
 PW_GRID|   Bounds   3            -30      29                Points:          60
 PW_GRID| Volume element (a.u.^3)  0.1600E-01     Volume (a.u.^3)      3455.1473
 PW_GRID| Grid span                                                    FULLSPACE
 PW_GRID|   Distribution                         Average         Max         Min
 PW_GRID|   G-Vectors                             3375.0        3540        3240
 PW_GRID|   G-Rays                                  56.2          59          54
 PW_GRID|   Real Space Points                     3375.0        3840        2940

 PW_GRID| Information for grid number                                          5
 PW_GRID| Number of the reference grid                                         2
 PW_GRID| Grid distributed over                                    64 processors
 PW_GRID| Real space group dimensions                                     8    8
 PW_GRID| the grid is blocked:                                                NO
 PW_GRID| Cutoff [a.u.]                                                     22.2
 PW_GRID| spherical cutoff:                                                   NO
 PW_GRID|   Bounds   1            -18      17                Points:          36
 PW_GRID|   Bounds   2            -18      17                Points:          36
 PW_GRID|   Bounds   3            -18      17                Points:          36
 PW_GRID| Volume element (a.u.^3)  0.7406E-01     Volume (a.u.^3)      3455.1473
 PW_GRID| Grid span                                                    FULLSPACE
 PW_GRID|   Distribution                         Average         Max         Min
 PW_GRID|   G-Vectors                              729.0         792         684
 PW_GRID|   G-Rays                                  20.2          22          19
 PW_GRID|   Real Space Points                      729.0         900         576

 PW_GRID| Information for grid number                                          6
 PW_GRID| Number of the reference grid                                         2
 PW_GRID| Grid distributed over                                    64 processors
 PW_GRID| Real space group dimensions                                     8    8
 PW_GRID| the grid is blocked:                                                NO
 PW_GRID| Cutoff [a.u.]                                                      7.4
 PW_GRID| spherical cutoff:                                                   NO
 PW_GRID|   Bounds   1            -10       9                Points:          20
 PW_GRID|   Bounds   2            -10       9                Points:          20
 PW_GRID|   Bounds   3            -10       9                Points:          20
 PW_GRID| Volume element (a.u.^3)  0.4319         Volume (a.u.^3)      3455.1473
 PW_GRID| Grid span                                                    FULLSPACE
 PW_GRID|   Distribution                         Average         Max         Min
 PW_GRID|   G-Vectors                              125.0         140         100
 PW_GRID|   G-Rays                                   6.2           7           5
 PW_GRID|   Real Space Points                      125.0         180          80

 POISSON| Solver                                          Martyna-Tuckerman (MT)
 POISSON| MT| Alpha                                                        7.000
 POISSON| MT| Relative cutoff                                                2.0
 POISSON| Periodicity                                                       NONE

 RS_GRID| Information for grid number                                          2
 RS_GRID|   Bounds   1            -90      89                Points:         180
 RS_GRID|   Bounds   2            -90      89                Points:         180
 RS_GRID|   Bounds   3            -90      89                Points:         180
 RS_GRID| Real space distribution over                                  8 groups
 RS_GRID| Real space distribution along direction                              2
 RS_GRID| Border size                                                         36
 RS_GRID| Real space distribution over                                  8 groups
 RS_GRID| Real space distribution along direction                              3
 RS_GRID| Border size                                                         36
 RS_GRID|   Distribution                         Average         Max         Min
 RS_GRID|   Planes                                  94.5          95          94
 RS_GRID|   Distribution                         Average         Max         Min
 RS_GRID|   Planes                                  94.5          95          94

 RS_GRID| Information for grid number                                          3
 RS_GRID|   Bounds   1            -50      49                Points:         100
 RS_GRID|   Bounds   2            -50      49                Points:         100
 RS_GRID|   Bounds   3            -50      49                Points:         100
 RS_GRID| Real space fully replicated
 RS_GRID| Group size                                                           1

 RS_GRID| Information for grid number                                          4
 RS_GRID|   Bounds   1            -30      29                Points:          60
 RS_GRID|   Bounds   2            -30      29                Points:          60
 RS_GRID|   Bounds   3            -30      29                Points:          60
 RS_GRID| Real space fully replicated
 RS_GRID| Group size                                                           1

 RS_GRID| Information for grid number                                          5
 RS_GRID|   Bounds   1            -18      17                Points:          36
 RS_GRID|   Bounds   2            -18      17                Points:          36
 RS_GRID|   Bounds   3            -18      17                Points:          36
 RS_GRID| Real space fully replicated
 RS_GRID| Group size                                                           1

 RS_GRID| Information for grid number                                          6
 RS_GRID|   Bounds   1            -10       9                Points:          20
 RS_GRID|   Bounds   2            -10       9                Points:          20
 RS_GRID|   Bounds   3            -10       9                Points:          20
 RS_GRID| Real space fully replicated
 RS_GRID| Group size                                                           1

 BFGS| Use rational function optimization for step estimation:                NO
 BFGS| Use model Hessian for initial guess:                                  YES
 BFGS| Restart Hessian:                                                       NO
 BFGS| Trust radius:                                                       0.472

 *******************************************************************************
 ***                     STARTING GEOMETRY OPTIMIZATION                      ***
 ***                                   BFGS                                  ***
 *******************************************************************************

 Number of electrons:                                                         18
 Number of occupied orbitals:                                                  9
 Number of molecular orbitals:                                                 9

 Number of orbital functions:                                                 62
 Number of independent orbital functions:                                     62

 Extrapolation method: initial_guess

 Atomic guess: The first density matrix is obtained in terms of atomic orbitals
               and electronic configurations assigned to each atomic kind

 Guess for atomic kind: F

 Electronic structure
    Total number of core electrons                                          0.00
    Total number of valence electrons                                       9.00
    Total number of electrons                                               9.00
    Multiplicity                                                   not specified
    S      2.00  2.00
    P      5.00
 

 *******************************************************************************
                  Iteration          Convergence                     Energy [au]
 *******************************************************************************
                          1         1.44247                     -98.919302612217
                          2         1.78049                     -98.865141798239
                          3        0.110199                     -99.088444290991
                          4        0.403602E-02                 -99.089572347862
                          5        0.204248E-03                 -99.089573426278
                          6        0.420105E-05                 -99.089573429432
                          7        0.481056E-05                 -99.089573429432
                          8        0.141011E-07                 -99.089573429434

 Energy components [Hartree]           Total Energy ::          -99.089573429434
                                        Band Energy ::          -52.587484361159
                                     Kinetic Energy ::           98.657649928640
                                   Potential Energy ::         -197.747223358073
                                      Virial (-V/T) ::            2.004378003136
                                        Core Energy ::         -139.033521023864
                                          XC Energy ::           -9.626910165406
                                     Coulomb Energy ::           49.570857759837

 Orbital energies  State     L     Occupation   Energy[a.u.]          Energy[eV]

                       1     0          2.000     -24.185291         -658.115231
                       2     0          2.000      -1.081754          -29.436032
 
                       1     1          5.000      -0.410679          -11.175140
 

 Total Electron Density at R=0:                                       430.543562
 Re-scaling the density matrix to get the right number of electrons
                  # Electrons              Trace(P)               Scaling factor
                           18                18.000                        1.000


 SCF WAVEFUNCTION OPTIMIZATION

  ----------------------------------- OT ---------------------------------------
  Minimizer      : DIIS                : direct inversion
                                         in the iterative subspace
                                         using   7 DIIS vectors
                                         safer DIIS on
  Preconditioner : FULL_ALL            : diagonalization, state selective
  Precond_solver : DEFAULT
  stepsize       :    0.15000000                  energy_gap     :    0.08000000
  eps_taylor     :   0.10000E-15                  max_taylor     :             4
  ----------------------------------- OT ---------------------------------------

  Step     Update method      Time    Convergence         Total energy    Change
  ------------------------------------------------------------------------------
     1 OT DIIS     0.15E+00   25.3     0.15627448      -197.7090971615 -1.98E+02
     2 OT DIIS     0.15E+00   18.3     0.04940167      -198.9840046441 -1.27E+00
     3 OT DIIS     0.15E+00   17.4     0.01676483      -199.1228111688 -1.39E-01
     4 OT DIIS     0.15E+00   16.5     0.00521188      -199.1389169827 -1.61E-02
     5 OT DIIS     0.15E+00   17.5     0.00226359      -199.1405057938 -1.59E-03
     6 OT DIIS     0.15E+00   17.8     0.00120638      -199.1407878754 -2.82E-04
     7 OT DIIS     0.15E+00   17.4     0.00044925      -199.1409057111 -1.18E-04
     8 OT DIIS     0.15E+00   17.1     0.00016790      -199.1409217803 -1.61E-05
     9 OT DIIS     0.15E+00   17.0     0.00001977      -199.1409233279 -1.55E-06
    10 OT DIIS     0.15E+00   17.4     0.00000490      -199.1409233541 -2.63E-08
    11 OT DIIS     0.15E+00   17.7     0.00000076      -199.1409233558 -1.69E-09
    12 OT DIIS     0.15E+00   16.5     0.00000021      -199.1409233559 -4.14E-11
    13 OT DIIS     0.15E+00   17.6     0.00000006      -199.1409233559 -3.52E-12
    14 OT DIIS     0.15E+00   16.7     0.00000002      -199.1409233559 -2.84E-13
    15 OT DIIS     0.15E+00   18.3     2.6888E-09      -199.1409233559 -2.56E-13

  *** SCF run converged in    15 steps ***


  Electronic density on regular grids:        -12.3900588104        5.6099411896
  Core density on regular grids:               18.0000000000        0.0000000000
  Hard and soft densities (Lebedev):          -24.1269505123      -18.5169930622
  Total Rho_soft + Rho1_hard - Rho1_soft      -18.0000162604
  Total charge density (r-space):              -0.0000162604
  Total Rho_soft + Rho0_soft (g-space):        -0.0000168289

  Overlap energy of the core charge distribution:               0.00000004143517
  Self energy of the core charge distribution:               -209.12677936959636
  Core Hamiltonian energy:                                     -7.85935902356989
  Hartree energy:                                              25.37413509426376
  Exchange-correlation energy:                                 -7.67490112694387

  GAPW| Exc from hard and soft atomic rho1:                   -13.27973131506160
  GAPW| local Eh = 1 center integrals:                         13.42571234359232

  Total energy:                                              -199.14092335588049

  outer SCF iter =    1 RMS gradient =   0.27E-08 energy =       -199.1409233559
  outer SCF loop converged in   1 iterations or   15 steps


 !-----------------------------------------------------------------------------!
                     Mulliken Population Analysis

 #  Atom  Element  Kind  Atomic population                           Net charge
       1     F        1          9.000000                             -0.000000
       2     F        1          9.000000                              0.000000
 # Total charge                             18.000000                 -0.000000

 !-----------------------------------------------------------------------------!

 !-----------------------------------------------------------------------------!
                           Hirshfeld Charges

  #Atom  Element  Kind  Ref Charge     Population                    Net charge
      1       F      1       9.000          9.000                         0.000
      2       F      1       9.000          9.000                         0.000

  Total Charge                                                            0.000
 !-----------------------------------------------------------------------------!

 ENERGY| Total FORCE_EVAL ( QS ) energy [a.u.]:             -199.140923355881199

 --------  Informations at step =     0 ------------
  Optimization Method        =                 BFGS
  Total Energy               =      -199.1409233559
  Used time                  =              282.544
 ---------------------------------------------------

 --------------------------
 OPTIMIZATION STEP:      1
 --------------------------

 Number of electrons:                                                         18
 Number of occupied orbitals:                                                  9
 Number of molecular orbitals:                                                 9

 Number of orbital functions:                                                 62
 Number of independent orbital functions:                                     62

 Parameters for the always stable predictor-corrector (ASPC) method:

  ASPC order: 0

  B(1) =   1.000000

 Extrapolation method: ASPC


 SCF WAVEFUNCTION OPTIMIZATION

  ----------------------------------- OT ---------------------------------------
  Minimizer      : DIIS                : direct inversion
                                         in the iterative subspace
                                         using   7 DIIS vectors
                                         safer DIIS on
  Preconditioner : FULL_ALL            : diagonalization, state selective
  Precond_solver : DEFAULT
  stepsize       :    0.15000000                  energy_gap     :    0.08000000
  eps_taylor     :   0.10000E-15                  max_taylor     :             4
  ----------------------------------- OT ---------------------------------------

  Step     Update method      Time    Convergence         Total energy    Change
  ------------------------------------------------------------------------------
     1 OT DIIS     0.15E+00   24.7     0.04363330      -199.2915034582 -1.99E+02
     2 OT DIIS     0.15E+00   20.5     0.01683542      -199.4015949515 -1.10E-01
     3 OT DIIS     0.15E+00   17.6     0.00111851      -199.4208223073 -1.92E-02
     4 OT DIIS     0.15E+00   17.0     0.00028464      -199.4208713480 -4.90E-05
     5 OT DIIS     0.15E+00   17.8     0.00007333      -199.4208752545 -3.91E-06
     6 OT DIIS     0.15E+00   17.2     0.00000309      -199.4208755966 -3.42E-07
     7 OT DIIS     0.15E+00   17.1     0.00000115      -199.4208755971 -5.40E-10
     8 OT DIIS     0.15E+00   16.5     0.00000014      -199.4208755972 -6.91E-11
     9 OT DIIS     0.15E+00   16.7     0.00000003      -199.4208755972  1.17E-12
    10 OT DIIS     0.15E+00   17.3     8.3953E-09      -199.4208755972 -3.13E-13

  *** SCF run converged in    10 steps ***


  Electronic density on regular grids:        -12.5628446543        5.4371553457
  Core density on regular grids:               18.0000000000        0.0000000000
  Hard and soft densities (Lebedev):          -19.6085713621      -14.1714140344
  Total Rho_soft + Rho1_hard - Rho1_soft      -18.0000019820
  Total charge density (r-space):              -0.0000019820
  Total Rho_soft + Rho0_soft (g-space):        -0.0000025561

  Overlap energy of the core charge distribution:               0.00000000000000
  Self energy of the core charge distribution:               -209.12677936959636
  Core Hamiltonian energy:                                     -9.61356630765814
  Hartree energy:                                              26.46450622557797
  Exchange-correlation energy:                                 -7.53709456709834

  GAPW| Exc from hard and soft atomic rho1:                   -13.06644034578410
  GAPW| local Eh = 1 center integrals:                         13.45849876735094

  Total energy:                                              -199.42087559720804

  outer SCF iter =    1 RMS gradient =   0.84E-08 energy =       -199.4208755972
  outer SCF loop converged in   1 iterations or   10 steps


 !-----------------------------------------------------------------------------!
                     Mulliken Population Analysis

 #  Atom  Element  Kind  Atomic population                           Net charge
       1     F        1          9.000000                             -0.000000
       2     F        1          9.000000                              0.000000
 # Total charge                             18.000000                  0.000000

 !-----------------------------------------------------------------------------!

 !-----------------------------------------------------------------------------!
                           Hirshfeld Charges

  #Atom  Element  Kind  Ref Charge     Population                    Net charge
      1       F      1       9.000          9.000                         0.000
      2       F      1       9.000          9.000                         0.000

  Total Charge                                                            0.000
 !-----------------------------------------------------------------------------!

 ENERGY| Total FORCE_EVAL ( QS ) energy [a.u.]:             -199.420875597204997

 --------  Informations at step =     1 ------------
  Optimization Method        =                 BFGS
  Total Energy               =      -199.4208755972
  Real energy change         =        -0.2799522413
  Predicted change in energy =        -0.3811287209
  Scaling factor             =         0.0000000000
  Step size                  =         0.3386305065
  Trust radius               =         0.4724315332
  Decrease in energy         =                  YES
  Used time                  =              193.568

  Convergence check :
  Max. step size             =         0.3386305065
  Conv. limit for step size  =         0.0030000000
  Convergence in step size   =                   NO
  RMS step size              =         0.1955084141
  Conv. limit for RMS step   =         0.0015000000
  Convergence in RMS step    =                   NO
  Max. gradient              =         0.0436851087
  Conv. limit for gradients  =         0.0004500000
  Conv. for gradients        =                   NO
  RMS gradient               =         0.0252216093
  Conv. limit for RMS grad.  =         0.0003000000
  Conv. for gradients        =                   NO
 ---------------------------------------------------
 Estimated peak process memory after this step [MiB]                         557

 --------------------------
 OPTIMIZATION STEP:      2
 --------------------------

 Number of electrons:                                                         18
 Number of occupied orbitals:                                                  9
 Number of molecular orbitals:                                                 9

 Number of orbital functions:                                                 62
 Number of independent orbital functions:                                     62

 Parameters for the always stable predictor-corrector (ASPC) method:

  ASPC order: 0

  B(1) =   2.000000
  B(2) =  -1.000000

 Extrapolation method: ASPC


 SCF WAVEFUNCTION OPTIMIZATION

  ----------------------------------- OT ---------------------------------------
  Minimizer      : DIIS                : direct inversion
                                         in the iterative subspace
                                         using   7 DIIS vectors
                                         safer DIIS on
  Preconditioner : FULL_ALL            : diagonalization, state selective
  Precond_solver : DEFAULT
  stepsize       :    0.15000000                  energy_gap     :    0.08000000
  eps_taylor     :   0.10000E-15                  max_taylor     :             4
  ----------------------------------- OT ---------------------------------------

  Step     Update method      Time    Convergence         Total energy    Change
  ------------------------------------------------------------------------------
     1 OT DIIS     0.15E+00   24.1     0.04066606      -199.3098195956 -1.99E+02
     2 OT DIIS     0.15E+00   19.3     0.01574878      -199.4049115226 -9.51E-02
     3 OT DIIS     0.15E+00   20.0     0.00179139      -199.4217557951 -1.68E-02
     4 OT DIIS     0.15E+00   20.3     0.00025850      -199.4218868135 -1.31E-04
     5 OT DIIS     0.15E+00   20.3     0.00007807      -199.4218899203 -3.11E-06
     6 OT DIIS     0.15E+00   20.9     0.00000331      -199.4218903204 -4.00E-07
     7 OT DIIS     0.15E+00   19.5     0.00000079      -199.4218903210 -6.53E-10
     8 OT DIIS     0.15E+00   19.7     0.00000019      -199.4218903211 -4.92E-11
     9 OT DIIS     0.15E+00   20.9     0.00000003      -199.4218903211  2.96E-12
    10 OT DIIS     0.15E+00   20.8     8.1175E-09      -199.4218903210  5.26E-12

  *** SCF run converged in    10 steps ***


  Electronic density on regular grids:        -12.5656342444        5.4343657556
  Core density on regular grids:               18.0000000000        0.0000000000
  Hard and soft densities (Lebedev):          -19.5124151954      -14.0780474215
  Total Rho_soft + Rho1_hard - Rho1_soft      -18.0000020183
  Total charge density (r-space):              -0.0000020183
  Total Rho_soft + Rho0_soft (g-space):        -0.0000025924

  Overlap energy of the core charge distribution:               0.00000000000000
  Self energy of the core charge distribution:               -209.12677936959636
  Core Hamiltonian energy:                                     -9.64596550935526
  Hartree energy:                                              26.48735653920895
  Exchange-correlation energy:                                 -7.53207159111668

  GAPW| Exc from hard and soft atomic rho1:                   -13.06314808710308
  GAPW| local Eh = 1 center integrals:                         13.45871769691434

  Total energy:                                              -199.42189032104810

  outer SCF iter =    1 RMS gradient =   0.81E-08 energy =       -199.4218903210
  outer SCF loop converged in   1 iterations or   10 steps


 !-----------------------------------------------------------------------------!
                     Mulliken Population Analysis

 #  Atom  Element  Kind  Atomic population                           Net charge
       1     F        1          9.000000                             -0.000000
       2     F        1          9.000000                              0.000000
 # Total charge                             18.000000                  0.000000

 !-----------------------------------------------------------------------------!

 !-----------------------------------------------------------------------------!
                           Hirshfeld Charges

  #Atom  Element  Kind  Ref Charge     Population                    Net charge
      1       F      1       9.000          9.000                         0.000
      2       F      1       9.000          9.000                         0.000

  Total Charge                                                            0.000
 !-----------------------------------------------------------------------------!

 ENERGY| Total FORCE_EVAL ( QS ) energy [a.u.]:             -199.421890321048437

 --------  Informations at step =     2 ------------
  Optimization Method        =                 BFGS
  Total Energy               =      -199.4218903210
  Real energy change         =        -0.0010147238
  Predicted change in energy =        -0.0005973651
  Scaling factor             =         0.0000000000
  Step size                  =         0.0136743422
  Trust radius               =         0.4724315332
  Decrease in energy         =                  YES
  Used time                  =              217.099

  Convergence check :
  Max. step size             =         0.0136743422
  Conv. limit for step size  =         0.0030000000
  Convergence in step size   =                   NO
  RMS step size              =         0.0078948852
  Conv. limit for RMS step   =         0.0015000000
  Convergence in RMS step    =                   NO
  Max. gradient              =         0.0307036208
  Conv. limit for gradients  =         0.0004500000
  Conv. for gradients        =                   NO
  RMS gradient               =         0.0177267437
  Conv. limit for RMS grad.  =         0.0003000000
  Conv. for gradients        =                   NO
 ---------------------------------------------------
 Estimated peak process memory after this step [MiB]                         560

 --------------------------
 OPTIMIZATION STEP:      3
 --------------------------

 Number of electrons:                                                         18
 Number of occupied orbitals:                                                  9
 Number of molecular orbitals:                                                 9

 Number of orbital functions:                                                 62
 Number of independent orbital functions:                                     62

 Parameters for the always stable predictor-corrector (ASPC) method:

  ASPC order: 1

  B(1) =   2.500000
  B(2) =  -2.000000
  B(3) =   0.500000

 Extrapolation method: ASPC


 SCF WAVEFUNCTION OPTIMIZATION

  ----------------------------------- OT ---------------------------------------
  Minimizer      : DIIS                : direct inversion
                                         in the iterative subspace
                                         using   7 DIIS vectors
                                         safer DIIS on
  Preconditioner : FULL_ALL            : diagonalization, state selective
  Precond_solver : DEFAULT
  stepsize       :    0.15000000                  energy_gap     :    0.08000000
  eps_taylor     :   0.10000E-15                  max_taylor     :             4
  ----------------------------------- OT ---------------------------------------

  Step     Update method      Time    Convergence         Total energy    Change
  ------------------------------------------------------------------------------
     1 OT DIIS     0.15E+00   24.1     0.02239165      -199.3887219963 -1.99E+02
     2 OT DIIS     0.15E+00   17.2     0.00874187      -199.4177150411 -2.90E-02
     3 OT DIIS     0.15E+00   17.2     0.00074211      -199.4229621001 -5.25E-03
     4 OT DIIS     0.15E+00   17.4     0.00013271      -199.4229847576 -2.27E-05
     5 OT DIIS     0.15E+00   17.2     0.00003498      -199.4229855503 -7.93E-07
     6 OT DIIS     0.15E+00   17.4     0.00000107      -199.4229856297 -7.94E-08
     7 OT DIIS     0.15E+00   17.2     0.00000018      -199.4229856298 -8.05E-11
     8 OT DIIS     0.15E+00   17.7     0.00000010      -199.4229856298  1.85E-12
     9 OT DIIS     0.15E+00   17.9     0.00000001      -199.4229856298 -2.93E-12
    10 OT DIIS     0.15E+00   17.5     3.2335E-09      -199.4229856298 -2.59E-12

  *** SCF run converged in    10 steps ***


  Electronic density on regular grids:        -12.5714396931        5.4285603069
  Core density on regular grids:               18.0000000000        0.0000000000
  Hard and soft densities (Lebedev):          -19.3080195633      -13.8794572252
  Total Rho_soft + Rho1_hard - Rho1_soft      -18.0000020313
  Total charge density (r-space):              -0.0000020313
  Total Rho_soft + Rho0_soft (g-space):        -0.0000026051

  Overlap energy of the core charge distribution:               0.00000000000000
  Self energy of the core charge distribution:               -209.12677936959636
  Core Hamiltonian energy:                                     -9.71531195792456
  Hartree energy:                                              26.53683288220640
  Exchange-correlation energy:                                 -7.52052831443717

  GAPW| Exc from hard and soft atomic rho1:                   -13.05630390065082
  GAPW| local Eh = 1 center integrals:                         13.45910503062846

  Total energy:                                              -199.42298562977408

  outer SCF iter =    1 RMS gradient =   0.32E-08 energy =       -199.4229856298
  outer SCF loop converged in   1 iterations or   10 steps


 !-----------------------------------------------------------------------------!
                     Mulliken Population Analysis

 #  Atom  Element  Kind  Atomic population                           Net charge
       1     F        1          9.000000                             -0.000000
       2     F        1          9.000000                              0.000000
 # Total charge                             18.000000                 -0.000000

 !-----------------------------------------------------------------------------!

 !-----------------------------------------------------------------------------!
                           Hirshfeld Charges

  #Atom  Element  Kind  Ref Charge     Population                    Net charge
      1       F      1       9.000          9.000                         0.000
      2       F      1       9.000          9.000                         0.000

  Total Charge                                                            0.000
 !-----------------------------------------------------------------------------!

 ENERGY| Total FORCE_EVAL ( QS ) energy [a.u.]:             -199.422985629769045

 --------  Informations at step =     3 ------------
  Optimization Method        =                 BFGS
  Total Energy               =      -199.4229856298
  Real energy change         =        -0.0010953087
  Predicted change in energy =        -0.0009930272
  Scaling factor             =         0.0000000000
  Step size                  =         0.0323423494
  Trust radius               =         0.4724315332
  Decrease in energy         =                  YES
  Used time                  =              193.659

  Convergence check :
  Max. step size             =         0.0323423494
  Conv. limit for step size  =         0.0030000000
  Convergence in step size   =                   NO
  RMS step size              =         0.0186728642
  Conv. limit for RMS step   =         0.0015000000
  Convergence in RMS step    =                   NO
  Max. gradient              =         0.0040658666
  Conv. limit for gradients  =         0.0004500000
  Conv. for gradients        =                   NO
  RMS gradient               =         0.0023474292
  Conv. limit for RMS grad.  =         0.0003000000
  Conv. for gradients        =                   NO
 ---------------------------------------------------
 Estimated peak process memory after this step [MiB]                         562

 --------------------------
 OPTIMIZATION STEP:      4
 --------------------------

 Number of electrons:                                                         18
 Number of occupied orbitals:                                                  9
 Number of molecular orbitals:                                                 9

 Number of orbital functions:                                                 62
 Number of independent orbital functions:                                     62

 Parameters for the always stable predictor-corrector (ASPC) method:

  ASPC order: 2

  B(1) =   2.800000
  B(2) =  -2.800000
  B(3) =   1.200000
  B(4) =  -0.200000

 Extrapolation method: ASPC


 SCF WAVEFUNCTION OPTIMIZATION

  ----------------------------------- OT ---------------------------------------
  Minimizer      : DIIS                : direct inversion
                                         in the iterative subspace
                                         using   7 DIIS vectors
                                         safer DIIS on
  Preconditioner : FULL_ALL            : diagonalization, state selective
  Precond_solver : DEFAULT
  stepsize       :    0.15000000                  energy_gap     :    0.08000000
  eps_taylor     :   0.10000E-15                  max_taylor     :             4
  ----------------------------------- OT ---------------------------------------

  Step     Update method      Time    Convergence         Total energy    Change
  ------------------------------------------------------------------------------
     1 OT DIIS     0.15E+00   23.1     0.01130694      -199.4142526281 -1.99E+02
     2 OT DIIS     0.15E+00   16.8     0.00443497      -199.4216443932 -7.39E-03
     3 OT DIIS     0.15E+00   17.4     0.00042323      -199.4230001751 -1.36E-03
     4 OT DIIS     0.15E+00   17.2     0.00006450      -199.4230076604 -7.49E-06
     5 OT DIIS     0.15E+00   16.7     0.00001844      -199.4230078526 -1.92E-07
     6 OT DIIS     0.15E+00   17.0     0.00000062      -199.4230078748 -2.22E-08
     7 OT DIIS     0.15E+00   17.6     0.00000008      -199.4230078748 -2.45E-11
     8 OT DIIS     0.15E+00   17.2     0.00000004      -199.4230078748  1.36E-12
     9 OT DIIS     0.15E+00   16.3     6.2774E-09      -199.4230078748 -1.53E-12

  *** SCF run converged in     9 steps ***


  Electronic density on regular grids:        -12.5722350682        5.4277649318
  Core density on regular grids:               18.0000000000        0.0000000000
  Hard and soft densities (Lebedev):          -19.2794423257      -13.8516753670
  Total Rho_soft + Rho1_hard - Rho1_soft      -18.0000020269
  Total charge density (r-space):              -0.0000020269
  Total Rho_soft + Rho0_soft (g-space):        -0.0000025992

  Overlap energy of the core charge distribution:               0.00000000000000
  Self energy of the core charge distribution:               -209.12677936959636
  Core Hamiltonian energy:                                     -9.72504952741412
  Hartree energy:                                              26.54384851880624
  Exchange-correlation energy:                                 -7.51881014772963

  GAPW| Exc from hard and soft atomic rho1:                   -13.05536701735666
  GAPW| local Eh = 1 center integrals:                         13.45914966845854

  Total energy:                                              -199.42300787483200

  outer SCF iter =    1 RMS gradient =   0.63E-08 energy =       -199.4230078748
[...]
      2       F      1       9.000          9.000                         0.000

  Total Charge                                                            0.000
 !-----------------------------------------------------------------------------!

 ENERGY| Total FORCE_EVAL ( QS ) energy [a.u.]:             -199.423008169161903

 -------------------------------------------------------------------------------
 -                                                                             -
 -                                DBCSR STATISTICS                             -
 -                                                                             -
 -------------------------------------------------------------------------------
 COUNTER                                    TOTAL       BLAS       SMM       ACC
 flops     9 x     9 x     9              1007478       0.0%    100.0%      0.0%
 flops     9 x     9 x    31              2922804       0.0%    100.0%      0.0%
 flops    31 x     9 x     9              3635928       0.0%    100.0%      0.0%
 flops    31 x    31 x     9              4359096       0.0%    100.0%      0.0%
 flops    31 x     9 x    31             25047504       0.0%    100.0%      0.0%
 flops inhomo. stacks                           0       0.0%      0.0%      0.0%
 flops total                        36.972810E+06       0.0%    100.0%      0.0%
 flops max/rank                     19.725030E+06       0.0%    100.0%      0.0%
 matmuls inhomo. stacks                         0       0.0%      0.0%      0.0%
 matmuls total                               3697       0.0%    100.0%      0.0%
 number of processed stacks                  3697       0.0%    100.0%      0.0%
 average stack size                                     0.0       1.0       0.0
 marketing flops                    38.496092E+06
 -------------------------------------------------------------------------------
 # multiplications                           1797
 max memory usage/rank             589.340672E+06
 # max total images/rank                        1
 # max 3D layers                                1
 # MPI messages exchanged                 1610112
 MPI messages size (bytes):
  total size                       131.895904E+06
  min size                           0.000000E+00
  max size                           7.688000E+03
  average size                      81.917221E+00
 MPI breakdown and total messages size (bytes):
             size <=      128             1567132                        0
       128 < size <=     8192               42980                131895904
      8192 < size <=    32768                   0                        0
     32768 < size <=   131072                   0                        0
    131072 < size <=  4194304                   0                        0
   4194304 < size <= 16777216                   0                        0
  16777216 < size                               0                        0
 -------------------------------------------------------------------------------
 -                                                                             -
 -                      DBCSR MESSAGE PASSING PERFORMANCE                      -
 -                                                                             -
 -------------------------------------------------------------------------------
 ROUTINE             CALLS      AVE VOLUME [Bytes]
 MP_Bcast                6                     12.
 MP_Allreduce         9391                      8.
 MP_Alltoall          6890                   5714.
 MP_ISend            57476                    269.
 MP_IRecv            57476                    143.
 -------------------------------------------------------------------------------

 -------------------------------------------------------------------------------
 -                                                                             -
 -                                DBM STATISTICS                               -
 -                                                                             -
 -------------------------------------------------------------------------------
    M  x    N  x    K                                          COUNT     PERCENT
 -------------------------------------------------------------------------------

 -------------------------------------------------------------------------------
 -                                                                             -
 -                                GRID STATISTICS                              -
 -                                                                             -
 -------------------------------------------------------------------------------
 LP    KERNEL             BACKEND                              COUNT     PERCENT
 2     collocate general  CPU                                   9856      16.66%
 2     integrate general  CPU                                   9088      15.36%
 2     collocate ortho    CPU                                   4914       8.31%
 2     integrate ortho    CPU                                   4797       8.11%
 1     collocate ortho    CPU                                   4212       7.12%
 3     collocate ortho    CPU                                   4212       7.12%
 3     integrate ortho    CPU                                   4212       7.12%
 1     integrate ortho    CPU                                   3996       6.75%
 4     integrate ortho    CPU                                   2454       4.15%
 4     collocate ortho    CPU                                   2340       3.95%
 0     collocate ortho    CPU                                   2106       3.56%
 0     integrate ortho    CPU                                   1917       3.24%
 5     integrate ortho    CPU                                   1032       1.74%
 5     collocate ortho    CPU                                    936       1.58%
 0     collocate general  CPU                                    896       1.51%
 0     integrate general  CPU                                    896       1.51%
 3     integrate general  CPU                                    768       1.30%
 6     integrate ortho    CPU                                    285       0.48%
 6     collocate ortho    CPU                                    234       0.40%
 7     integrate ortho    CPU                                     18       0.03%
 -------------------------------------------------------------------------------

 MEMORY| Estimated peak process memory [MiB]                                 563

 -------------------------------------------------------------------------------
 ----                             MULTIGRID INFO                            ----
 -------------------------------------------------------------------------------
 count for grid        1:         107497          cutoff [a.u.]          600.00
 count for grid        2:          18692          cutoff [a.u.]          200.00
 count for grid        3:           8100          cutoff [a.u.]           66.67
 count for grid        4:           2004          cutoff [a.u.]           22.22
 count for grid        5:              0          cutoff [a.u.]            7.41
 total gridlevel count  :         136293

 -------------------------------------------------------------------------------
 -                                                                             -
 -                         MESSAGE PASSING PERFORMANCE                         -
 -                                                                             -
 -------------------------------------------------------------------------------

 ROUTINE             CALLS      AVE VOLUME [Bytes]
 MP_Group                6
 MP_Bcast             1030                 176487.
 MP_Allreduce         3429                  13069.
 MP_Sync                56
 MP_Alltoall          2274                2658164.
 MP_SendRecv         19656                  49840.
 MP_ISendRecv        19404                  49840.
 MP_Wait             44275
 MP_comm_split          51
 MP_ISend            23256                 182962.
 MP_IRecv            23256                 182978.
 -------------------------------------------------------------------------------


 -------------------------------------------------------------------------------
 -                                                                             -
 -                           R E F E R E N C E S                               -
 -                                                                             -
 -------------------------------------------------------------------------------
 
 CP2K version 2023.2 (Development Version), the CP2K developers group (2023).
 CP2K is freely available from https://www.cp2k.org/ .

 Kuehne,Thomas D.; Iannuzzi,Marcella; Del Ben,Mauro;
 Rybkin,Vladimir V.; Seewald,Patrick; Stein,Frederick; Laino,Teodoro;
 Khaliullin,Rustam Z.; Schuett,Ole; Schiffmann,Florian; Golze,Dorothea;
 Wilhelm,Jan; Chulkov,Sergey; Bani-Hashemian,Mohammad Hossein;
 Weber,Valery; Borstnik,Urban; Taillefumier,Mathieu;
 Jakobovits,Alice Shoshana; Lazzaro,Alfio; Pabst,Hans; Mueller,Tiziano;
 Schade,Robert; Guidon,Manuel; Andermatt,Samuel; Holmberg,Nico;
 Schenter,Gregory K.; Hehn,Anna; Bussy,Augustin; Belleflamme,Fabian;
 Tabacchi,Gloria; Gloess,Andreas; Lass,Michael; Bethune,Iain;
 Mundy,Christopher J.; Plessl,Christian; Watkins,Matt;
 VandeVondele,Joost; Krack,Matthias; Hutter,Juerg. 
 The Journal of Chemical Physics, 152 (19), (2020). 
 CP2K: An electronic structure and molecular dynamics software package -
 Quickstep: Efficient and accurate electronic structure calculations.
 https://doi.org/10.1063/5.0007045

 Schuett, Ole; Messmer, Peter; Hutter, Juerg; VandeVondele, Joost. 
 Electronic Structure Calculations on Graphics Processing Units, John
 Wiley & Sons, Ltd, 173-190 (2016). 
 GPU-Accelerated Sparse Matrix-Matrix Multiplication for
 Linear Scaling Density Functional Theory.
 https://doi.org/10.1002/9781118670712.ch8

 Heinecke, A; Henry, G; Hutchinson, M; Pabst, H. 
 Proceedings of Intl. Supercomputing Conference, 981-991 (2016). 
 LIBXSMM: Accelerating Small Matrix Multiplications
 by Runtime Code Generation.
 https://doi.org/10.1109/SC.2016.83

 Borstnik, U; VandeVondele, J; Weber, V; Hutter, J. 
 PARALLEL COMPUTING, 40 (5-6), 47-58 (2014). 
 Sparse matrix multiplication: The distributed block-compressed sparse
 row library.
 https://doi.org/10.1016/j.parco.2014.03.012

 Hutter, J; Iannuzzi, M; Schiffmann, F; VandeVondele, J. 
 WIREs Comput Mol Sci., 4 (1), 15-25 (2014). 
 CP2K: atomistic simulations of condensed matter systems.
 https://doi.org/10.1002/wcms.1159

 Kuhne, TD; Krack, M; Mohamed, FR; Parrinello, M. 
 PHYSICAL REVIEW LETTERS, 98 (6), 066401 (2007). 
 Efficient and accurate Car-Parrinello-like approach to
 Born-Oppenheimer molecular dynamics.
 https://doi.org/10.1103/PhysRevLett.98.066401

 Frigo, M; Johnson, SG. 
 PROCEEDINGS OF THE IEEE, 93 (2), 216-231 (2005). 
 The design and implementation of FFTW3.
 https://doi.org/10.1109/JPROC.2004.840301

 Kolafa, J. 
 JOURNAL OF COMPUTATIONAL CHEMISTRY, 25 (3), 335-342 (2004). 
 Time-reversible always stable predictor-corrector method for
 molecular dynamics of polarizable molecules.
 https://doi.org/10.1002/jcc.10385

 VandeVondele, J; Hutter, J. 
 JOURNAL OF CHEMICAL PHYSICS, 118 (10), 4365-4369 (2003). 
 An efficient orbital transformation method for electronic structure
 calculations.
 https://doi.org/10.1063/1.1543154

 Lippert, G; Hutter, J; Parrinello, M. 
 THEORETICAL CHEMISTRY ACCOUNTS, 103 (2), 124-140 (1999). 
 The Gaussian and augmented-plane-wave density functional method for ab
 initio molecular dynamics simulations.
 https://doi.org/10.1007/s002140050523

 Krack, M; Parrinello, M. 
 PHYSICAL CHEMISTRY CHEMICAL PHYSICS, 2 (10), 2105-2112 (2000). 
 All-electron ab-initio molecular dynamics.
 https://doi.org/10.1039/b001167n

 Martyna, GJ; Tuckerman, ME. 
 JOURNAL OF CHEMICAL PHYSICS, 110 (6), 2810-2821 (1999). 
 A reciprocal space based method for treating long range interactions in
 ab initio and force-field-based calculations in clusters.
 https://doi.org/10.1063/1.477923

 Perdew, JP; Burke, K; Ernzerhof, M. 
 PHYSICAL REVIEW LETTERS, 77 (18), 3865-3868 (1996). 
 Generalized gradient approximation made simple.
 https://doi.org/10.1103/PhysRevLett.77.3865


 -------------------------------------------------------------------------------
 -                                                                             -
 -                                T I M I N G                                  -
 -                                                                             -
 -------------------------------------------------------------------------------
 SUBROUTINE                       CALLS  ASD         SELF TIME        TOTAL TIME
                                MAXIMUM       AVERAGE  MAXIMUM  AVERAGE  MAXIMUM
 CP2K                                 1  1.0    0.045    0.081 1368.424 1368.437
 cp_geo_opt                           1  2.0    0.002    0.011 1366.549 1366.561
 geoopt_bfgs                          1  3.0    0.004    0.020 1366.548 1366.558
 cp_eval_at                           7  4.0    0.001    0.012 1366.035 1366.088
 qs_energies                          7  5.9    0.014    0.029 1346.922 1347.146
 scf_env_do_scf                       7  6.9    0.000    0.001 1294.069 1294.163
 qs_forces                            6  5.0    0.006    0.023 1232.622 1232.670
 scf_env_do_scf_inner_loop           71  7.9    0.004    0.021 1199.071 1199.217
 qs_scf_new_mos                      71  8.9    0.000    0.000  939.121  939.890
 qs_scf_loop_do_ot                   71  9.9    0.001    0.013  939.121  939.890
 dbcsr_multiply_generic            1797 14.0    0.189    0.716  898.216  902.802
 ot_scf_mini                         71 10.9    0.001    0.001  899.336  900.112
 ot_mini                             71 11.9    0.003    0.021  638.129  638.807
 qs_ot_get_derivative                71 12.9    0.001    0.003  536.245  537.013
 multiply_cannon                   1797 15.0    5.097    5.563  364.622  376.913
 mp_sum_l                          9006 14.5  328.332  336.866  328.332  336.866
 multiply_cannon_loop              1797 16.0    0.491    0.588  303.180  320.119
 qs_ot_get_derivative_taylor         49 13.8    0.001    0.001  285.523  285.881
 multiply_cannon_multrec          14376 17.0  248.586  273.953  248.593  273.958
 rebuild_ks_matrix                   77  9.7    0.000    0.000  206.956  207.987
 qs_ks_build_kohn_sham_matrix        77 10.7    0.017    0.044  206.956  207.987
 qs_ks_update_qs_env                 78  8.9    0.000    0.000  190.977  191.985
 qs_ot_get_p                         78 11.7    0.000    0.000  168.416  169.029
 make_m2s                          3594 15.0    0.035    0.057  133.967  140.574
 make_images                       3594 16.0   10.377   11.331  132.854  138.191
 pw_transfer                       1778 13.8    0.098    0.155  129.392  130.778
 fft_wrap_pw1pw2                   1547 14.9    0.008    0.018  128.774  130.098
 fft3d_ps                          1547 16.9    5.620    6.137  126.729  127.987
 make_images_sizes                 3594 17.0    0.004    0.014  121.744  124.485
 mp_alltoall_i44                   3594 18.0  121.740  124.471  121.740  124.471
 mp_waitall_1                    164779 17.9   72.489  120.652   72.489  120.652
 qs_ot_get_derivative_diag           22 14.0    0.000    0.000  118.210  118.521
 ot_diis_step                        71 12.9    0.011    0.037   94.867   95.064
 qs_rho_update_rho_low               78  9.0    0.004    0.035   92.568   94.261
 init_scf_loop                        7  7.9    0.000    0.010   92.618   92.705
 mp_alltoall_z22v                  1547 18.9   82.412   84.022   82.412   84.022
 apply_preconditioner_dbcsr          78 13.9    0.000    0.000   79.472   80.346
 apply_all                           78 14.9    0.000    0.001   79.472   80.346
 calculate_rho_elec                  78 10.0    0.040    0.052   76.189   77.800
 multiply_cannon_metrocomm1       14376 17.0    0.033    0.054   33.583   75.105
 fft_wrap_pw1pw2_600                926 16.4    0.898    1.164   73.094   74.415
 qs_ot_get_orbitals                  71 11.9    0.000    0.000   72.128   72.610
 sum_up_and_integrate                77 11.7    0.001    0.001   66.620   67.681
 integrate_v_rspace                  77 12.7    0.002    0.013   66.562   67.627
 mp_sum_d                          2310 11.3   62.864   66.918   62.864   66.918
 density_rs2pw                       78 11.0    0.004    0.014   65.438   66.321
 mp_sum_b                          3182 15.3   64.379   65.924   64.379   65.924
 potential_pw2rs                     77 13.7    0.006    0.017   63.116   63.381
 prepare_preconditioner               7  8.9    0.000    0.000   60.589   60.739
 mp_allgather_i34                  1797 16.0   55.777   58.737   55.777   58.737
 dbcsr_complete_redistribute        267 13.3    0.012    0.033   52.685   54.199
 copy_dbcsr_to_fm                   137 12.1    0.002    0.044   52.266   52.774
 qs_ot_p2m_taylor                    54 12.6    0.001    0.001   47.133   47.959
 qs_vxc_create                       77 11.7    0.003    0.023   46.710   46.900
 xc_vxc_pw_create                    77 12.7    0.188    0.221   46.707   46.898
 calculate_dm_sparse                 78 10.8    0.000    0.000   44.523   44.827
 qs_ot_p2m_diag                      24 13.0    0.003    0.035   44.024   44.406
 make_preconditioner                  7  9.9    0.000    0.000   40.731   40.886
 multiply_cannon_metrocomm3       14376 17.0    0.033    0.051   20.400   40.664
 transfer_pw2rs                     469 14.3    0.003    0.014   40.085   40.602
 init_scf_run                         7  6.9    0.000    0.007   40.249   40.311
 scf_env_initial_rho_setup            7  7.9    0.000    0.013   40.249   40.311
 mp_alltoall_d11v                  1691 14.9   36.941   39.843   36.941   39.843
 x_to_yz                            540 18.3    1.821    2.055   39.115   39.629
 yz_to_x                            542 18.2    0.264    0.319   38.222   39.152
 xc_pw_derive                       462 14.7    0.003    0.003   36.682   37.360
 cp_dbcsr_sm_fm_multiply             37 10.9    0.001    0.011   35.792   36.332
 transfer_rs2pw                     474 12.2    0.005    0.023   34.739   35.502
 mp_alltoall_z11v                   465 18.3   34.018   34.908   34.018   34.908
 arnoldi_extremal                    78 12.7    0.001    0.001   33.773   34.655
 arnoldi_normal_ev                   78 13.7    0.003    0.023   33.771   34.654
 subspace_eigenvalues_ks_dbcsr       14 10.4    0.000    0.000   32.857   33.064
 cp_dbcsr_syevd                      38 13.0    0.004    0.026   32.101   32.606
 wfi_extrapolate                      7  8.9    0.003    0.026   32.278   32.315
 dbcsr_dot_sd                       789 13.4    0.002    0.013   30.184   31.682
 mp_sum_dm                          587 10.4   29.315   29.813   29.315   29.813
 mp_waitany                       23256 15.1   28.036   28.967   28.036   28.967
 mp_alltoall_i22                    510 14.8   26.835   28.814   26.835   28.814
 -------------------------------------------------------------------------------

 The number of warnings for this run is : 0
 
 -------------------------------------------------------------------------------
  **** **** ******  **  PROGRAM ENDED AT                 2023-12-05 17:56:50.530
 ***** ** ***  *** **   PROGRAM RAN ON                               nesh-clk431
 **    ****   ******    PROGRAM RAN BY                                  suphc355
 ***** **    ** ** **   PROGRAM PROCESS ID                               4123892
  **** **  *******  **  PROGRAM STOPPED IN /gxfs_work/cau/suphc355/homologes/X2/
                                           opt/F
