       2
 i =        7, E =     -5147.5176721939
 Br         2.8790054817        3.9999999776        4.0000001317
 Br         5.1209945183        4.0000000224        3.9999998683
