       2
 i =        6, E =     -2574.3689131087
 Br         3.2843776774        3.9999999804        4.0000000286
  H         4.7156222835        4.0000000195        3.9999999715
