 DBCSR| CPU Multiplication driver                                           XSMM (U)
 DBCSR| Multrec recursion limit                                              512 (U)
 DBCSR| Multiplication stack size                                           1000 (D)
 DBCSR| Maximum elements for images                                    UNLIMITED (U)
 DBCSR| Multiplicative factor virtual images                                   1 (U)
 DBCSR| Use multiplication densification                                       T (D)
 DBCSR| Multiplication size stacks                                             3 (U)
 DBCSR| Use memory pool for CPU allocation                                     F (U)
 DBCSR| Number of 3D layers                                               SINGLE (U)
 DBCSR| Use MPI memory allocation                                              F (U)
 DBCSR| Use RMA algorithm                                                      F (U)
 DBCSR| Use Communication thread                                               T (U)
 DBCSR| Communication thread load                                             83 (D)
 DBCSR| MPI: My process id                                                     0
 DBCSR| MPI: Number of processes                                             512
 DBCSR| OMP: Current number of threads                                         2
 DBCSR| OMP: Max number of threads                                             2
 DBCSR| Split modifier for TAS multiplication algorithm                  1.0E+00 (U)


  **** **** ******  **  PROGRAM STARTED AT               2024-03-09 13:03:39.316
 ***** ** ***  *** **   PROGRAM STARTED ON                           nesh-srp116
 **    ****   ******    PROGRAM STARTED BY                              suphc355
 ***** **    ** ** **   PROGRAM PROCESS ID                                393621
  **** **  *******  **  PROGRAM STARTED IN /gxfs_work/cau/suphc355/MOFs/CAU7_TAB
                                           A/SOC/TZ

 CP2K| version string:                 CP2K version 2024.1 (Development Version)
 CP2K| source code revision number:                                  git:b6f9133
 CP2K| cp2kflags: omp libint fftw3 libxc libgrpp parallel mpi_f08 scalapack cosm
 CP2K|            a xsmm spglib mkl
 CP2K| is freely available from                            https://www.cp2k.org/
 CP2K| Program compiled at                          Fr 26. Jan 09:14:30 CET 2024
 CP2K| Program compiled on                                           nesh-login3
 CP2K| Program compiled for                                                local
 CP2K| Data directory path            /gxfs_home/cau/suphc355/software/cp2k/data
 CP2K| Input file name                                                soc_tz.inp
 
 GLOBAL| Force Environment number                                              1
 GLOBAL| Basis set file name                                        BASIS_MOLOPT
 GLOBAL| Potential file name                                  GTH_SOC_POTENTIALS
 GLOBAL| MM Potential file name                                     MM_POTENTIAL
 GLOBAL| Coordinate file name                                         opt_tz.xyz
 GLOBAL| Method name                                                        CP2K
 GLOBAL| Project name                                                  CAU7_TABA
 GLOBAL| Run type                                                         ENERGY
 GLOBAL| FFT library                                                       FFTW3
 GLOBAL| Diagonalization library                                       ScaLAPACK
 GLOBAL| DGEMM library                                                      BLAS
 GLOBAL| Orthonormality check for eigenvectors                          DISABLED
 GLOBAL| Matrix multiplication library                                     COSMA
 GLOBAL| All-to-all communication in single precision                          F
 GLOBAL| FFTs using library dependent lengths                                  F
 GLOBAL| Grid backend                                                       AUTO
 GLOBAL| Global print level                                               MEDIUM
 GLOBAL| MPI I/O enabled                                                       T
 GLOBAL| Total number of message passing processes                           512
 GLOBAL| Number of threads for this process                                    2
 GLOBAL| This output is from process                                           0
 GLOBAL| Stack size for threads created by OpenMP (OMP_STACKSIZE)        default
 GLOBAL| CPU model name                              Intel(R) Xeon(R) Gold 6426Y
 GLOBAL| CPUID                                                              1003

 MEMORY| system memory details [Kb]
 MEMORY|                        rank 0           min           max       average
 MEMORY| MemTotal            263786136     263786108     263788440     263786278
 MEMORY| MemFree             244826292     243226140     246106600     244055687
 MEMORY| Buffers                616988        347940       1216264        966260
 MEMORY| Cached                 685972        653680       1205112        983498
 MEMORY| Slab                   701272        485600       1136064        890618
 MEMORY| SReclaimable           148764        127724        289000        218979
 MEMORY| MemLikelyFree       246278016     245747792     247301152     246224425


 *** Fundamental physical constants (SI units) ***

 *** Literature: B. J. Mohr and B. N. Taylor,
 ***             CODATA recommended values of the fundamental physical
 ***             constants: 2006, Web Version 5.1
 ***             http://physics.nist.gov/constants

 Speed of light in vacuum [m/s]                             2.99792458000000E+08
 Magnetic constant or permeability of vacuum [N/A**2]       1.25663706143592E-06
 Electric constant or permittivity of vacuum [F/m]          8.85418781762039E-12
 Planck constant (h) [J*s]                                  6.62606896000000E-34
 Planck constant (h-bar) [J*s]                              1.05457162825177E-34
 Elementary charge [C]                                      1.60217648700000E-19
 Electron mass [kg]                                         9.10938215000000E-31
 Electron g factor [ ]                                     -2.00231930436220E+00
 Proton mass [kg]                                           1.67262163700000E-27
 Fine-structure constant                                    7.29735253760000E-03
 Rydberg constant [1/m]                                     1.09737315685270E+07
 Avogadro constant [1/mol]                                  6.02214179000000E+23
 Boltzmann constant [J/K]                                   1.38065040000000E-23
 Atomic mass unit [kg]                                      1.66053878200000E-27
 Bohr radius [m]                                            5.29177208590000E-11

 *** Conversion factors ***

 [u] -> [a.u.]                                              1.82288848426455E+03
 [Angstrom] -> [Bohr] = [a.u.]                              1.88972613288564E+00
 [a.u.] = [Bohr] -> [Angstrom]                              5.29177208590000E-01
 [a.u.] -> [s]                                              2.41888432650478E-17
 [a.u.] -> [fs]                                             2.41888432650478E-02
 [a.u.] -> [J]                                              4.35974393937059E-18
 [a.u.] -> [N]                                              8.23872205491840E-08
 [a.u.] -> [K]                                              3.15774647902944E+05
 [a.u.] -> [kJ/mol]                                         2.62549961709828E+03
 [a.u.] -> [kcal/mol]                                       6.27509468713739E+02
 [a.u.] -> [Pa]                                             2.94210107994716E+13
 [a.u.] -> [bar]                                            2.94210107994716E+08
 [a.u.] -> [atm]                                            2.90362800883016E+08
 [a.u.] -> [eV]                                             2.72113838565563E+01
 [a.u.] -> [Hz]                                             6.57968392072181E+15
 [a.u.] -> [1/cm] (wave numbers)                            2.19474631370540E+05
 [a.u./Bohr**2] -> [1/cm]                                   5.14048714338585E+03
 

 CELL_TOP| Volume [angstrom^3]:                                      3351.133038
 CELL_TOP| Vector a [angstrom    31.001     0.000     0.000   |a| =    31.000600
 CELL_TOP| Vector b [angstrom     0.000    27.623     0.000   |b| =    27.623200
 CELL_TOP| Vector c [angstrom     0.000     0.000     3.913   |c| =     3.913340
 CELL_TOP| Angle (b,c), alpha [degree]:                                90.000000
 CELL_TOP| Angle (a,c), beta  [degree]:                                90.000000
 CELL_TOP| Angle (a,b), gamma [degree]:                                90.000000
 CELL_TOP| Numerically orthorhombic:                                         YES
 CELL_TOP| Periodicity                                                       XYZ

 CELL| Volume [angstrom^3]:                                          3351.133038
 CELL| Vector a [angstrom]:      31.001     0.000     0.000   |a| =    31.000600
 CELL| Vector b [angstrom]:       0.000    27.623     0.000   |b| =    27.623200
 CELL| Vector c [angstrom]:       0.000     0.000     3.913   |c| =     3.913340
 CELL| Angle (b,c), alpha [degree]:                                    90.000000
 CELL| Angle (a,c), beta  [degree]:                                    90.000000
 CELL| Angle (a,b), gamma [degree]:                                    90.000000
 CELL| Numerically orthorhombic:                                             YES
 CELL| Periodicity                                                           XYZ

 CELL_REF| Volume [angstrom^3]:                                      3351.133038
 CELL_REF| Vector a [angstrom    31.001     0.000     0.000   |a| =    31.000600
 CELL_REF| Vector b [angstrom     0.000    27.623     0.000   |b| =    27.623200
 CELL_REF| Vector c [angstrom     0.000     0.000     3.913   |c| =     3.913340
 CELL_REF| Angle (b,c), alpha [degree]:                                90.000000
 CELL_REF| Angle (a,c), beta  [degree]:                                90.000000
 CELL_REF| Angle (a,b), gamma [degree]:                                90.000000
 CELL_REF| Numerically orthorhombic:                                         YES
 CELL_REF| Periodicity                                                       XYZ

 *******************************************************************************
 *******************************************************************************
 **                                                                           **
 **     #####                         ##              ##                      **
 **    ##   ##            ##          ##              ##                      **
 **   ##     ##                       ##            ######                    **
 **   ##     ##  ##   ##  ##   #####  ##  ##   ####   ##    #####    #####    **
 **   ##     ##  ##   ##  ##  ##      ## ##   ##      ##   ##   ##  ##   ##   **
 **   ##  ## ##  ##   ##  ##  ##      ####     ###    ##   ######   ######    **
 **    ##  ###   ##   ##  ##  ##      ## ##      ##   ##   ##       ##        **
 **     #######   #####   ##   #####  ##  ##  ####    ##    #####   ##        **
 **           ##                                                    ##        **
 **                                                                           **
 **                                                ... make the atoms dance   **
 **                                                                           **
 **            Copyright (C) by CP2K developers group (2000-2024)             **
 **                      J. Chem. Phys. 152, 194103 (2020)                    **
 **                                                                           **
 *******************************************************************************

 DFT| Spin restricted Kohn-Sham (RKS) calculation                            RKS
 DFT| Multiplicity                                                             1
 DFT| Number of spin states                                                    1
 DFT| Charge                                                                   0
 DFT| Self-interaction correction (SIC)                                       NO
 DFT| Cutoffs: density                                              1.000000E-10
 DFT|          gradient                                             1.000000E-10
 DFT|          tau                                                  1.000000E-10
 DFT|          cutoff_smoothing_range                               0.000000E+00
 DFT| XC density smoothing                                                  NONE
 DFT| XC derivatives                                                          PW

 FUNCTIONAL| PBE:
 FUNCTIONAL| J.P.Perdew, K.Burke, M.Ernzerhof, Phys. Rev. Letter, vol. 77, n 18,
 FUNCTIONAL|  pp. 3865-3868, (1996) {spin unpolarized}                          

 vdW POTENTIAL|                                                   Pair Potential
 vdW POTENTIAL|          DFT-D3 (Version 3.1)
 vdW POTENTIAL|          Potential Form: S. Grimme et al, JCP 132: 154104 (2010)
 vdW POTENTIAL|          Zero Damping
 vdW POTENTIAL|          Cutoff Radius [Bohr]:                             30.24
 vdW POTENTIAL|          s6 Scaling Factor:                               1.0000
 vdW POTENTIAL|          sr6 Scaling Factor:                              1.2170
 vdW POTENTIAL|          s8 Scaling Factor:                               0.7220
 vdW POTENTIAL|          Cutoff for CN calculation:                   0.1000E-05

 QS| Method:                                                                 GPW
 QS| Density plane wave grid type                        NON-SPHERICAL FULLSPACE
 QS| Number of grid levels:                                                    5
 QS| Density cutoff [a.u.]:                                                400.0
 QS| Multi grid cutoff [a.u.]: 1) grid level                               400.0
 QS|                           2) grid level                               133.3
 QS|                           3) grid level                                44.4
 QS|                           4) grid level                                14.8
 QS|                           5) grid level                                 4.9
 QS| Grid level progression factor:                                          3.0
 QS| Relative density cutoff [a.u.]:                                        40.0
 QS| Interaction thresholds: eps_pgf_orb:                                1.0E-30
 QS|                         eps_filter_matrix:                          0.0E+00
 QS|                         eps_core_charge:                            1.0E-17
 QS|                         eps_rho_gspace:                             1.0E-15
 QS|                         eps_rho_rspace:                             1.0E-15
 QS|                         eps_gvg_rspace:                             3.2E-08
 QS|                         eps_ppl:                                    1.0E-02
 QS|                         eps_ppnl:                                   3.2E-10


 ATOMIC KIND INFORMATION

  1. Atomic kind: Bi                                    Number of atoms:       4

     Orbital Basis Set                                    TZVP-MOLOPT-GGA-GTH-q5

       Number of orbital shell sets:                                           1
       Number of orbital shells:                                               7
       Number of primitive Cartesian functions:                                5
       Number of Cartesian basis functions:                                   18
       Number of spherical basis functions:                                   17
       Norm type:                                                              2

       Normalised Cartesian orbitals:

                        Set   Shell   Orbital            Exponent    Coefficient

                          1       1    2s                1.476279      -1.009126
                                                         1.112852       1.669764
                                                         0.244984      -0.649537
                                                         0.041275       0.035417
                                                         0.105231       0.163887

                          1       2    3s                1.476279       0.085849
                                                         1.112852      -0.181606
                                                         0.244984       0.041995
                                                         0.041275       0.011127
                                                         0.105231       0.100930

                          1       3    4s                1.476279      -0.367480
                                                         1.112852       0.337310
                                                         0.244984       0.102732
                                                         0.041275      -0.092668
                                                         0.105231       0.053152

                          1       4    3px               1.476279      -0.487935
                                                         1.112852       0.925872
                                                         0.244984      -0.364869
                                                         0.041275       0.015489
                                                         0.105231       0.072277
                          1       4    3py               1.476279      -0.487935
                                                         1.112852       0.925872
                                                         0.244984      -0.364869
                                                         0.041275       0.015489
                                                         0.105231       0.072277
                          1       4    3pz               1.476279      -0.487935
                                                         1.112852       0.925872
                                                         0.244984      -0.364869
                                                         0.041275       0.015489
                                                         0.105231       0.072277

                          1       5    4px               1.476279       0.147304
                                                         1.112852      -0.267547
                                                         0.244984       0.084037
                                                         0.041275       0.005523
                                                         0.105231       0.049790
                          1       5    4py               1.476279       0.147304
                                                         1.112852      -0.267547
                                                         0.244984       0.084037
                                                         0.041275       0.005523
                                                         0.105231       0.049790
                          1       5    4pz               1.476279       0.147304
                                                         1.112852      -0.267547
                                                         0.244984       0.084037
                                                         0.041275       0.005523
                                                         0.105231       0.049790

                          1       6    5px               1.476279      -0.514307
                                                         1.112852       0.703241
                                                         0.244984       0.004106
                                                         0.041275      -0.035967
                                                         0.105231       0.053021
                          1       6    5py               1.476279      -0.514307
                                                         1.112852       0.703241
                                                         0.244984       0.004106
                                                         0.041275      -0.035967
                                                         0.105231       0.053021
                          1       6    5pz               1.476279      -0.514307
                                                         1.112852       0.703241
                                                         0.244984       0.004106
                                                         0.041275      -0.035967
                                                         0.105231       0.053021

                          1       7    4dx2              1.476279      -0.401062
                                                         1.112852       0.488511
                                                         0.244984      -0.082145
                                                         0.041275      -0.001806
                                                         0.105231      -0.010944
                          1       7    4dxy              1.476279      -0.694660
                                                         1.112852       0.846125
                                                         0.244984      -0.142279
                                                         0.041275      -0.003127
                                                         0.105231      -0.018955
                          1       7    4dxz              1.476279      -0.694660
                                                         1.112852       0.846125
                                                         0.244984      -0.142279
                                                         0.041275      -0.003127
                                                         0.105231      -0.018955
                          1       7    4dy2              1.476279      -0.401062
                                                         1.112852       0.488511
                                                         0.244984      -0.082145
                                                         0.041275      -0.001806
                                                         0.105231      -0.010944
                          1       7    4dyz              1.476279      -0.694660
                                                         1.112852       0.846125
                                                         0.244984      -0.142279
                                                         0.041275      -0.003127
                                                         0.105231      -0.018955
                          1       7    4dz2              1.476279      -0.401062
                                                         1.112852       0.488511
                                                         0.244984      -0.082145
                                                         0.041275      -0.001806
                                                         0.105231      -0.010944

       Atomic covalent radius [Angstrom]:                                  1.460

       Atomic van der Waals radius [Angstrom]:                             2.070

     GTH Potential information for                                       GTH-PBE

       Description:                       Goedecker-Teter-Hutter pseudopotential
                                           Goedecker et al., PRB 54, 1703 (1996)
                                          Hartwigsen et al., PRB 58, 3641 (1998)
                                                      Krack, TCA 114, 145 (2005)

       Gaussian exponent of the core charge distribution:               1.366027
       Electronic configuration (s p d ...):                               2   3

       Parameters of the local part of the GTH pseudopotential:

                          rloc        C1          C2          C3          C4
                        0.605000    7.945757

       Parameters of the non-local part of the GTH (SOC) pseudopotential:

                   l      r(l)      h(i,j,l)
                                    k(i,j,l)
                   0    0.582232    0.643735    2.247616   -1.440601
                                    2.247616   -5.244797    3.719615
                                   -1.440601    3.719615   -2.952353
                   1    0.766394    0.212533    0.379834
                                    0.379834   -0.449426
                                    0.339106   -0.021086
                                   -0.021086    0.024949
                   2    0.965655    0.347298
                                    0.020357

  2. Atomic kind: O                                     Number of atoms:      24

     Orbital Basis Set                                        TZVP-MOLOPT-GTH-q6

       Number of orbital shell sets:                                           1
       Number of orbital shells:                                               7
       Number of primitive Cartesian functions:                                7
       Number of Cartesian basis functions:                                   18
       Number of spherical basis functions:                                   17
       Norm type:                                                              2

       Normalised Cartesian orbitals:

                        Set   Shell   Orbital            Exponent    Coefficient

                          1       1    2s               12.015955      -0.284499
                                                         5.108150      -0.322498
                                                         2.048398       0.148191
                                                         0.832382       0.295475
                                                         0.352316       0.150829
                                                         0.142977       0.015788
                                                         0.046761      -0.000019

                          1       2    3s               12.015955       0.725622
                                                         5.108150       0.644384
                                                         2.048398      -0.157350
                                                         0.832382      -0.853528
                                                         0.352316       0.146068
                                                         0.142977       0.153978
                                                         0.046761       0.000658

                          1       3    4s               12.015955       1.228006
                                                         5.108150       1.271453
                                                         2.048398      -0.537390
                                                         0.832382      -1.759282
                                                         0.352316       1.533697
                                                         0.142977      -0.562509
                                                         0.046761       0.081954

                          1       4    3px              12.015955       1.192141
                                                         5.108150       1.354170
                                                         2.048398       0.897267
                                                         0.832382       0.408839
                                                         0.352316       0.116648
                                                         0.142977       0.022184
                                                         0.046761       0.000308
                          1       4    3py              12.015955       1.192141
                                                         5.108150       1.354170
                                                         2.048398       0.897267
                                                         0.832382       0.408839
                                                         0.352316       0.116648
                                                         0.142977       0.022184
                                                         0.046761       0.000308
                          1       4    3pz              12.015955       1.192141
                                                         5.108150       1.354170
                                                         2.048398       0.897267
                                                         0.832382       0.408839
                                                         0.352316       0.116648
                                                         0.142977       0.022184
                                                         0.046761       0.000308

                          1       5    4px              12.015955      -1.062381
                                                         5.108150      -1.285791
                                                         2.048398      -0.727000
                                                         0.832382      -0.522764
                                                         0.352316       0.182681
                                                         0.142977       0.087560
                                                         0.046761       0.000981
                          1       5    4py              12.015955      -1.062381
                                                         5.108150      -1.285791
                                                         2.048398      -0.727000
                                                         0.832382      -0.522764
                                                         0.352316       0.182681
                                                         0.142977       0.087560
                                                         0.046761       0.000981
                          1       5    4pz              12.015955      -1.062381
                                                         5.108150      -1.285791
                                                         2.048398      -0.727000
                                                         0.832382      -0.522764
                                                         0.352316       0.182681
                                                         0.142977       0.087560
                                                         0.046761       0.000981

                          1       6    5px              12.015955      -0.063722
                                                         5.108150       0.363638
                                                         2.048398       0.015152
                                                         0.832382      -0.083580
                                                         0.352316       0.692078
                                                         0.142977      -0.184312
                                                         0.046761       0.007664
                          1       6    5py              12.015955      -0.063722
                                                         5.108150       0.363638
                                                         2.048398       0.015152
                                                         0.832382      -0.083580
                                                         0.352316       0.692078
                                                         0.142977      -0.184312
                                                         0.046761       0.007664
                          1       6    5pz              12.015955      -0.063722
                                                         5.108150       0.363638
                                                         2.048398       0.015152
                                                         0.832382      -0.083580
                                                         0.352316       0.692078
                                                         0.142977      -0.184312
                                                         0.046761       0.007664

                          1       7    4dx2             12.015955       1.125955
                                                         5.108150       1.160468
                                                         2.048398       0.999335
                                                         0.832382       0.756334
                                                         0.352316       0.048604
                                                         0.142977       0.010378
                                                         0.046761      -0.000027
                          1       7    4dxy             12.015955       1.950212
                                                         5.108150       2.009990
                                                         2.048398       1.730899
                                                         0.832382       1.310009
                                                         0.352316       0.084185
                                                         0.142977       0.017974
                                                         0.046761      -0.000046
                          1       7    4dxz             12.015955       1.950212
                                                         5.108150       2.009990
                                                         2.048398       1.730899
                                                         0.832382       1.310009
                                                         0.352316       0.084185
                                                         0.142977       0.017974
                                                         0.046761      -0.000046
                          1       7    4dy2             12.015955       1.125955
                                                         5.108150       1.160468
                                                         2.048398       0.999335
                                                         0.832382       0.756334
                                                         0.352316       0.048604
                                                         0.142977       0.010378
                                                         0.046761      -0.000027
                          1       7    4dyz             12.015955       1.950212
                                                         5.108150       2.009990
                                                         2.048398       1.730899
                                                         0.832382       1.310009
                                                         0.352316       0.084185
                                                         0.142977       0.017974
                                                         0.046761      -0.000046
                          1       7    4dz2             12.015955       1.125955
                                                         5.108150       1.160468
                                                         2.048398       0.999335
                                                         0.832382       0.756334
                                                         0.352316       0.048604
                                                         0.142977       0.010378
                                                         0.046761      -0.000027

       Atomic covalent radius [Angstrom]:                                  0.730

       Atomic van der Waals radius [Angstrom]:                             1.520

     GTH Potential information for                                       GTH-PBE

       Description:                       Goedecker-Teter-Hutter pseudopotential
                                           Goedecker et al., PRB 54, 1703 (1996)
                                          Hartwigsen et al., PRB 58, 3641 (1998)
                                                      Krack, TCA 114, 145 (2005)

       Gaussian exponent of the core charge distribution:               8.360253
       Electronic configuration (s p d ...):                               2   4

       Parameters of the local part of the GTH pseudopotential:

                          rloc        C1          C2          C3          C4
                        0.244554  -16.667215    2.487311

       Parameters of the non-local part of the GTH (SOC) pseudopotential:

                   l      r(l)      h(i,j,l)
                                    k(i,j,l)
                   0    0.220956   18.337458
                   1    0.211332    0.000000
                                    0.007559

  3. Atomic kind: N                                     Number of atoms:      12

     Orbital Basis Set                                        TZVP-MOLOPT-GTH-q5

       Number of orbital shell sets:                                           1
       Number of orbital shells:                                               7
       Number of primitive Cartesian functions:                                7
       Number of Cartesian basis functions:                                   18
       Number of spherical basis functions:                                   17
       Norm type:                                                              2

       Normalised Cartesian orbitals:

                        Set   Shell   Orbital            Exponent    Coefficient

                          1       1    2s                9.042730      -0.237404
                                                         3.882225      -0.265910
                                                         1.512880       0.102064
                                                         0.586631       0.295369
                                                         0.222851       0.088647
                                                         0.084583       0.003860
                                                         0.039194       0.000722

                          1       2    3s                9.042730       0.259152
                                                         3.882225       0.251432
                                                         1.512880      -0.043896
                                                         0.586631      -0.328079
                                                         0.222851       0.175857
                                                         0.084583       0.069169
                                                         0.039194       0.004207

                          1       3    4s                9.042730       0.330627
                                                         3.882225       0.738242
                                                         1.512880      -0.570149
                                                         0.586631       0.474918
                                                         0.222851       0.192885
                                                         0.084583      -0.214824
                                                         0.039194       0.031577

                          1       4    3px               9.042730       0.822162
                                                         3.882225       0.990771
                                                         1.512880       0.665657
                                                         0.586631       0.321705
                                                         0.222851       0.063706
                                                         0.084583       0.004155
                                                         0.039194      -0.000005
                          1       4    3py               9.042730       0.822162
                                                         3.882225       0.990771
                                                         1.512880       0.665657
                                                         0.586631       0.321705
                                                         0.222851       0.063706
                                                         0.084583       0.004155
                                                         0.039194      -0.000005
                          1       4    3pz               9.042730       0.822162
                                                         3.882225       0.990771
                                                         1.512880       0.665657
                                                         0.586631       0.321705
                                                         0.222851       0.063706
                                                         0.084583       0.004155
                                                         0.039194      -0.000005

                          1       5    4px               9.042730      -0.251449
                                                         3.882225      -0.215479
                                                         1.512880      -0.200519
                                                         0.586631      -0.125283
                                                         0.222851       0.136219
                                                         0.084583       0.034362
                                                         0.039194       0.000879
                          1       5    4py               9.042730      -0.251449
                                                         3.882225      -0.215479
                                                         1.512880      -0.200519
                                                         0.586631      -0.125283
                                                         0.222851       0.136219
                                                         0.084583       0.034362
                                                         0.039194       0.000879
                          1       5    4pz               9.042730      -0.251449
                                                         3.882225      -0.215479
                                                         1.512880      -0.200519
                                                         0.586631      -0.125283
                                                         0.222851       0.136219
                                                         0.084583       0.034362
                                                         0.039194       0.000879

                          1       6    5px               9.042730      -1.546561
                                                         3.882225       0.742834
                                                         1.512880      -1.783177
                                                         0.586631       0.969458
                                                         0.222851       0.077327
                                                         0.084583      -0.117711
                                                         0.039194       0.027593
                          1       6    5py               9.042730      -1.546561
                                                         3.882225       0.742834
                                                         1.512880      -1.783177
                                                         0.586631       0.969458
                                                         0.222851       0.077327
                                                         0.084583      -0.117711
                                                         0.039194       0.027593
                          1       6    5pz               9.042730      -1.546561
                                                         3.882225       0.742834
                                                         1.512880      -1.783177
                                                         0.586631       0.969458
                                                         0.222851       0.077327
                                                         0.084583      -0.117711
                                                         0.039194       0.027593

                          1       7    4dx2              9.042730       1.099742
                                                         3.882225       0.532064
                                                         1.512880       0.873643
                                                         0.586631       0.456348
                                                         0.222851       0.017840
                                                         0.084583      -0.000857
                                                         0.039194      -0.000086
                          1       7    4dxy              9.042730       1.904809
                                                         3.882225       0.921562
                                                         1.512880       1.513195
                                                         0.586631       0.790419
                                                         0.222851       0.030900
                                                         0.084583      -0.001484
                                                         0.039194      -0.000150
                          1       7    4dxz              9.042730       1.904809
                                                         3.882225       0.921562
                                                         1.512880       1.513195
                                                         0.586631       0.790419
                                                         0.222851       0.030900
                                                         0.084583      -0.001484
                                                         0.039194      -0.000150
                          1       7    4dy2              9.042730       1.099742
                                                         3.882225       0.532064
                                                         1.512880       0.873643
                                                         0.586631       0.456348
                                                         0.222851       0.017840
                                                         0.084583      -0.000857
                                                         0.039194      -0.000086
                          1       7    4dyz              9.042730       1.904809
                                                         3.882225       0.921562
                                                         1.512880       1.513195
                                                         0.586631       0.790419
                                                         0.222851       0.030900
                                                         0.084583      -0.001484
                                                         0.039194      -0.000150
                          1       7    4dz2              9.042730       1.099742
                                                         3.882225       0.532064
                                                         1.512880       0.873643
                                                         0.586631       0.456348
                                                         0.222851       0.017840
                                                         0.084583      -0.000857
                                                         0.039194      -0.000086

       Atomic covalent radius [Angstrom]:                                  0.750

       Atomic van der Waals radius [Angstrom]:                             1.550

     GTH Potential information for                                       GTH-PBE

       Description:                       Goedecker-Teter-Hutter pseudopotential
                                           Goedecker et al., PRB 54, 1703 (1996)
                                          Hartwigsen et al., PRB 58, 3641 (1998)
                                                      Krack, TCA 114, 145 (2005)

       Gaussian exponent of the core charge distribution:               6.208322
       Electronic configuration (s p d ...):                               2   3

       Parameters of the local part of the GTH pseudopotential:

                          rloc        C1          C2          C3          C4
                        0.283791  -12.415226    1.868096

       Parameters of the non-local part of the GTH (SOC) pseudopotential:

                   l      r(l)      h(i,j,l)
                                    k(i,j,l)
                   0    0.255405   13.630263
                   1    0.245495    0.000000
                                    0.004148

  4. Atomic kind: C                                     Number of atoms:      96

     Orbital Basis Set                                        TZVP-MOLOPT-GTH-q4

       Number of orbital shell sets:                                           1
       Number of orbital shells:                                               7
       Number of primitive Cartesian functions:                                7
       Number of Cartesian basis functions:                                   18
       Number of spherical basis functions:                                   17
       Norm type:                                                              2

       Normalised Cartesian orbitals:

                        Set   Shell   Orbital            Exponent    Coefficient

                          1       1    2s                6.132625      -0.263661
                                                         2.625196      -0.231112
                                                         1.045457       0.042712
                                                         0.478316       0.306085
                                                         0.178617       0.065483
                                                         0.075145       0.000568
                                                         0.030287       0.000417

                          1       2    3s                6.132625       0.131937
                                                         2.625196       0.414269
                                                         1.045457      -0.593590
                                                         0.478316       0.644922
                                                         0.178617       0.069203
                                                         0.075145      -0.145101
                                                         0.030287       0.008247

                          1       3    4s                6.132625      -1.009391
                                                         2.625196      -0.608763
                                                         1.045457      -0.320627
                                                         0.478316       1.417678
                                                         0.178617      -0.917862
                                                         0.075145       0.286664
                                                         0.030287      -0.031483

                          1       4    3px               6.132625       0.562677
                                                         2.625196       0.633910
                                                         1.045457       0.379157
                                                         0.478316       0.235193
                                                         0.178617       0.052379
                                                         0.075145       0.003677
                                                         0.030287       0.000105
                          1       4    3py               6.132625       0.562677
                                                         2.625196       0.633910
                                                         1.045457       0.379157
                                                         0.478316       0.235193
                                                         0.178617       0.052379
                                                         0.075145       0.003677
                                                         0.030287       0.000105
                          1       4    3pz               6.132625       0.562677
                                                         2.625196       0.633910
                                                         1.045457       0.379157
                                                         0.478316       0.235193
                                                         0.178617       0.052379
                                                         0.075145       0.003677
                                                         0.030287       0.000105

                          1       5    4px               6.132625      -0.472364
                                                         2.625196      -0.221326
                                                         1.045457      -0.481781
                                                         0.478316       0.135466
                                                         0.178617       0.072281
                                                         0.075145       0.024920
                                                         0.030287       0.002706
                          1       5    4py               6.132625      -0.472364
                                                         2.625196      -0.221326
                                                         1.045457      -0.481781
                                                         0.478316       0.135466
                                                         0.178617       0.072281
                                                         0.075145       0.024920
                                                         0.030287       0.002706
                          1       5    4pz               6.132625      -0.472364
                                                         2.625196      -0.221326
                                                         1.045457      -0.481781
                                                         0.478316       0.135466
                                                         0.178617       0.072281
                                                         0.075145       0.024920
                                                         0.030287       0.002706

                          1       6    5px               6.132625      -0.321125
                                                         2.625196      -0.513960
                                                         1.045457      -0.659092
                                                         0.478316       1.236398
                                                         0.178617      -0.279443
                                                         0.075145       0.042466
                                                         0.030287      -0.008547
                          1       6    5py               6.132625      -0.321125
                                                         2.625196      -0.513960
                                                         1.045457      -0.659092
                                                         0.478316       1.236398
                                                         0.178617      -0.279443
                                                         0.075145       0.042466
                                                         0.030287      -0.008547
                          1       6    5pz               6.132625      -0.321125
                                                         2.625196      -0.513960
                                                         1.045457      -0.659092
                                                         0.478316       1.236398
                                                         0.178617      -0.279443
                                                         0.075145       0.042466
                                                         0.030287      -0.008547

                          1       7    4dx2              6.132625       0.874783
                                                         2.625196       0.375772
                                                         1.045457       0.653959
                                                         0.478316       0.191007
                                                         0.178617       0.018656
                                                         0.075145       0.003649
                                                         0.030287      -0.000011
                          1       7    4dxy              6.132625       1.515169
                                                         2.625196       0.650856
                                                         1.045457       1.132690
                                                         0.478316       0.330834
                                                         0.178617       0.032314
                                                         0.075145       0.006321
                                                         0.030287      -0.000019
                          1       7    4dxz              6.132625       1.515169
                                                         2.625196       0.650856
                                                         1.045457       1.132690
                                                         0.478316       0.330834
                                                         0.178617       0.032314
                                                         0.075145       0.006321
                                                         0.030287      -0.000019
                          1       7    4dy2              6.132625       0.874783
                                                         2.625196       0.375772
                                                         1.045457       0.653959
                                                         0.478316       0.191007
                                                         0.178617       0.018656
                                                         0.075145       0.003649
                                                         0.030287      -0.000011
                          1       7    4dyz              6.132625       1.515169
                                                         2.625196       0.650856
                                                         1.045457       1.132690
                                                         0.478316       0.330834
                                                         0.178617       0.032314
                                                         0.075145       0.006321
                                                         0.030287      -0.000019
                          1       7    4dz2              6.132625       0.874783
                                                         2.625196       0.375772
                                                         1.045457       0.653959
                                                         0.478316       0.191007
                                                         0.178617       0.018656
                                                         0.075145       0.003649
                                                         0.030287      -0.000011

       Atomic covalent radius [Angstrom]:                                  0.770

       Atomic van der Waals radius [Angstrom]:                             1.700

     GTH Potential information for                                       GTH-PBE

       Description:                       Goedecker-Teter-Hutter pseudopotential
                                           Goedecker et al., PRB 54, 1703 (1996)
                                          Hartwigsen et al., PRB 58, 3641 (1998)
                                                      Krack, TCA 114, 145 (2005)

       Gaussian exponent of the core charge distribution:               4.364419
       Electronic configuration (s p d ...):                               2   2

       Parameters of the local part of the GTH pseudopotential:

                          rloc        C1          C2          C3          C4
                        0.338471   -8.803674    1.339211

       Parameters of the non-local part of the GTH (SOC) pseudopotential:

                   l      r(l)      h(i,j,l)
                                    k(i,j,l)
                   0    0.302576    9.622487
                   1    0.291507    0.000000
                                    0.002073

  5. Atomic kind: H                                     Number of atoms:      48

     Orbital Basis Set                                        TZVP-MOLOPT-GTH-q1

       Number of orbital shell sets:                                           1
       Number of orbital shells:                                               4
       Number of primitive Cartesian functions:                                7
       Number of Cartesian basis functions:                                    6
       Number of spherical basis functions:                                    6
       Norm type:                                                              2

       Normalised Cartesian orbitals:

                        Set   Shell   Orbital            Exponent    Coefficient

                          1       1    2s               11.478000       0.129129
                                                         3.700759       0.177012
                                                         1.446884       0.141285
                                                         0.716815       0.245670
                                                         0.247919       0.094768
                                                         0.066918       0.004062
                                                         0.021708      -0.000053

                          1       2    3s               11.478000      -0.079256
                                                         3.700759      -0.152992
                                                         1.446884       0.015066
                                                         0.716815      -0.331234
                                                         0.247919       0.210690
                                                         0.066918       0.058630
                                                         0.021708      -0.003429

                          1       3    4s               11.478000      -0.246880
                                                         3.700759       0.023016
                                                         1.446884      -1.109374
                                                         0.716815       1.524652
                                                         0.247919      -0.227968
                                                         0.066918      -0.037343
                                                         0.021708       0.005696

                          1       4    3px              11.478000       0.325290
                                                         3.700759       0.187466
                                                         1.446884       0.443300
                                                         0.716815       0.267738
                                                         0.247919       0.088285
                                                         0.066918       0.019092
                                                         0.021708       0.000629
                          1       4    3py              11.478000       0.325290
                                                         3.700759       0.187466
                                                         1.446884       0.443300
                                                         0.716815       0.267738
                                                         0.247919       0.088285
                                                         0.066918       0.019092
                                                         0.021708       0.000629
                          1       4    3pz              11.478000       0.325290
                                                         3.700759       0.187466
                                                         1.446884       0.443300
                                                         0.716815       0.267738
                                                         0.247919       0.088285
                                                         0.066918       0.019092
                                                         0.021708       0.000629

       Atomic covalent radius [Angstrom]:                                  0.320

       Atomic van der Waals radius [Angstrom]:                             1.090

     GTH Potential information for                                       GTH-PBE

       Description:                       Goedecker-Teter-Hutter pseudopotential
                                           Goedecker et al., PRB 54, 1703 (1996)
                                          Hartwigsen et al., PRB 58, 3641 (1998)
                                                      Krack, TCA 114, 145 (2005)

       Gaussian exponent of the core charge distribution:              12.500000
       Electronic configuration (s p d ...):                                   1

       Parameters of the local part of the GTH pseudopotential:

                          rloc        C1          C2          C3          C4
                        0.200000   -4.178900    0.724463


 MOLECULE KIND INFORMATION


 All atoms are their own molecule, skipping detailed information


 TOTAL NUMBERS AND MAXIMUM NUMBERS

  Total number of            - Atomic kinds:                                   5
                             - Atoms:                                        184
                             - Shell sets:                                   184
                             - Shells:                                      1144
                             - Primitive Cartesian functions:               1280
                             - Cartesian basis functions:                   2736
                             - Spherical basis functions:                   2600

  Maximum angular momentum of- Orbital basis functions:                        2
                             - Local part of the GTH pseudopotential:          2
                             - Non-local part of the GTH pseudopotential:      4


 MODULE QUICKSTEP: ATOMIC COORDINATES IN ANGSTROM

   Atom Kind Element         X             Y             Z       Z(eff)     Mass
      1    1 Bi   83     28.151236      2.768017      1.645288   5.0000 208.9804
      2    1 Bi   83      2.850813     16.580438      2.207566   5.0000 208.9804
      3    1 Bi   83     12.651415      2.766744      2.212872   5.0000 208.9804
      4    1 Bi   83     18.350563     16.570876      1.646928   5.0000 208.9804
      5    2 O     8     26.526793      0.862540      1.788014   6.0000  15.9994
      6    2 O     8      4.474485     14.674838      2.070506   6.0000  15.9994
      7    2 O     8     11.026710      0.861796      2.072577   6.0000  15.9994
      8    2 O     8     19.976525     14.672883      1.784795   6.0000  15.9994
      9    2 O     8     26.467746      2.244310      3.963094   6.0000  15.9994
     10    2 O     8      4.531507     16.057815     -0.105617   6.0000  15.9994
     11    2 O     8     10.968358      2.244433     -0.103212   6.0000  15.9994
     12    2 O     8     20.032821     16.055398      3.961158   6.0000  15.9994
     13    2 O     8     15.158925      2.299138      2.152682   6.0000  15.9994
     14    2 O     8     15.851283     16.071717      1.721395   6.0000  15.9994
     15    2 O     8     30.658685      2.299210      1.708767   6.0000  15.9994
     16    2 O     8      0.342982     16.109450      2.141050   6.0000  15.9994
     17    2 O     8     13.911896      1.659901     -0.040289   6.0000  15.9994
     18    2 O     8     17.097718     15.428704      3.913302   6.0000  15.9994
     19    2 O     8     29.412777      1.659743      3.900803   6.0000  15.9994
     20    2 O     8      1.588792     15.471682     -0.049767   6.0000  15.9994
     21    2 O     8     18.090275     18.410568      0.109122   6.0000  15.9994
     22    2 O     8     12.907745      4.602466      3.750943   6.0000  15.9994
     23    2 O     8      2.592139     18.414823      3.749513   6.0000  15.9994
     24    2 O     8     28.408856      4.603442      0.106546   6.0000  15.9994
     25    2 O     8     19.407206     18.815091      1.855984   6.0000  15.9994
     26    2 O     8     11.591260      5.004211      2.003394   6.0000  15.9994
     27    2 O     8      3.908389     18.818586      2.002497   6.0000  15.9994
     28    2 O     8     27.093015      5.007149      1.853815   6.0000  15.9994
     29    3 N     7     20.585919     26.829849      1.736561   5.0000  14.0067
     30    3 N     7     10.410683     13.016561      2.127759   5.0000  14.0067
     31    3 N     7      5.086672     26.830931      2.125725   5.0000  14.0067
     32    3 N     7     25.916648     13.019950      1.728665   5.0000  14.0067
     33    3 N     7     19.088753     24.997386      1.835335   5.0000  14.0067
     34    3 N     7     11.902086     11.178915      2.030152   5.0000  14.0067
     35    3 N     7      3.589076     24.998746      2.025846   5.0000  14.0067
     36    3 N     7     27.414036     11.187454      1.828969   5.0000  14.0067
     37    3 N     7     20.701818     25.286868      3.532206   5.0000  14.0067
     38    3 N     7     10.291179     11.473522      0.332150   5.0000  14.0067
     39    3 N     7      5.202626     25.288693      0.329477   5.0000  14.0067
     40    3 N     7     25.800277     11.477795      3.525035   5.0000  14.0067
     41    4 C     6     21.201220     26.315804      2.793902   4.0000  12.0107
     42    4 C     6      9.794744     12.504138      1.070054   4.0000  12.0107
     43    4 C     6      5.702042     26.317190      1.068299   4.0000  12.0107
     44    4 C     6     25.301440     12.506671      2.786395   4.0000  12.0107
     45    4 C     6     22.452997     26.929227      3.223273   4.0000  12.0107
     46    4 C     6      8.544875     13.119730      0.639107   4.0000  12.0107
     47    4 C     6      6.954472     26.929432      0.639455   4.0000  12.0107
     48    4 C     6     24.049078     13.119108      3.215771   4.0000  12.0107
     49    4 C     6     23.094226     26.457307      4.320911   4.0000  12.0107
     50    4 C     6      7.904214     12.647162     -0.458597   4.0000  12.0107
     51    4 C     6      7.595284     26.456938     -0.458173   4.0000  12.0107
     52    4 C     6     23.408545     12.646239      4.313415   4.0000  12.0107
     53    4 C     6     24.144680     27.174258      1.021206   4.0000  12.0107
     54    4 C     6      6.854736     13.364339      2.839891   4.0000  12.0107
     55    4 C     6      8.646163     27.173139      2.841509   4.0000  12.0107
     56    4 C     6     22.357383     13.361765      1.014085   4.0000  12.0107
     57    4 C     6     24.704532      0.640456      0.300690   4.0000  12.0107
     58    4 C     6      6.294822     14.453884      3.559924   4.0000  12.0107
     59    4 C     6      9.206103      0.639436      3.561617   4.0000  12.0107
     60    4 C     6     21.796544     14.451045      0.294332   4.0000  12.0107
     61    4 C     6     24.067001      1.113121      3.116259   4.0000  12.0107
     62    4 C     6      6.931899     14.927526      0.744221   4.0000  12.0107
     63    4 C     6      8.568832      1.112795      0.745895   4.0000  12.0107
     64    4 C     6     22.433762     14.925153      3.110207   4.0000  12.0107
     65    4 C     6     23.020045      0.395803      2.501457   4.0000  12.0107
     66    4 C     6      7.978327     14.210230      1.360014   4.0000  12.0107
     67    4 C     6      7.522141      0.395618      1.361315   4.0000  12.0107
     68    4 C     6     23.480923     14.208679      2.494601   4.0000  12.0107
     69    4 C     6     25.950936      1.272152      0.735077   4.0000  12.0107
     70    4 C     6      5.048998     15.085048      3.124018   4.0000  12.0107
     71    4 C     6     10.451675      1.271614      3.125923   4.0000  12.0107
     72    4 C     6     20.551013     15.082604      0.730814   4.0000  12.0107
     73    4 C     6     19.439884     26.216307      1.379374   4.0000  12.0107
     74    4 C     6     11.553802     12.398363      2.486987   4.0000  12.0107
     75    4 C     6      3.940384     26.217464      2.482368   4.0000  12.0107
     76    4 C     6     27.062823     12.406021      1.371852   4.0000  12.0107
     77    4 C     6     18.340483     26.998548      0.761021   4.0000  12.0107
     78    4 C     6     12.656495     13.173681      3.107725   4.0000  12.0107
     79    4 C     6      2.840833     26.998999      3.101158   4.0000  12.0107
     80    4 C     6     28.162326     13.186508      0.751451   4.0000  12.0107
     81    4 C     6     18.501509      0.231466     -0.274367   4.0000  12.0107
     82    4 C     6     12.500162     14.030387      4.143197   4.0000  12.0107
     83    4 C     6      3.001501      0.231764      4.136687   4.0000  12.0107
     84    4 C     6     28.001104     14.042546     -0.283953   4.0000  12.0107
     85    4 C     6     17.387914      0.804159     -0.917020   4.0000  12.0107
     86    4 C     6     13.617674     14.592998      4.788066   4.0000  12.0107
     87    4 C     6      1.887587      0.803765      4.779506   4.0000  12.0107
     88    4 C     6     29.114778     14.613587     -0.928130   4.0000  12.0107
     89    4 C     6     16.145200      0.788426     -0.239788   4.0000  12.0107
     90    4 C     6     14.861058     14.567552      4.112334   4.0000  12.0107
     91    4 C     6      0.644969      0.787838      4.102037   4.0000  12.0107
     92    4 C     6     30.357708     14.597918     -0.251356   4.0000  12.0107
     93    4 C     6     15.988088     27.603247      0.839233   4.0000  12.0107
     94    4 C     6     15.013771     13.759866      3.032386   4.0000  12.0107
     95    4 C     6     31.488814     27.602773      3.022883   4.0000  12.0107
     96    4 C     6     -0.485340     13.789730      0.827741   4.0000  12.0107
     97    4 C     6     17.088267     26.953443      1.421584   4.0000  12.0107
     98    4 C     6     13.909082     13.119182      2.448457   4.0000  12.0107
     99    4 C     6      1.588607     26.953256      2.440645   4.0000  12.0107
    100    4 C     6     29.415154     13.140320      1.410810   4.0000  12.0107
    101    4 C     6     15.035565      1.620273     -0.702433   4.0000  12.0107
    102    4 C     6     15.974956     15.392743      4.576070   4.0000  12.0107
    103    4 C     6     30.535786      1.619918      4.564061   4.0000  12.0107
    104    4 C     6      0.466266     15.430631     -0.713912   4.0000  12.0107
    105    4 C     6     19.777558     24.542464      2.870879   4.0000  12.0107
    106    4 C     6     11.213935     10.727236      0.993119   4.0000  12.0107
    107    4 C     6      4.277637     24.544584      0.989849   4.0000  12.0107
    108    4 C     6     26.725530     10.733577      2.865136   4.0000  12.0107
    109    4 C     6     19.515200     23.190025      3.340897   4.0000  12.0107
    110    4 C     6     11.476079      9.375899      0.521647   4.0000  12.0107
    111    4 C     6      4.015018     23.192886      0.518594   4.0000  12.0107
    112    4 C     6     26.987694      9.381850      3.336696   4.0000  12.0107
    113    4 C     6     18.640695     22.320070      2.631161   4.0000  12.0107
    114    4 C     6     12.351371      8.506720      1.231320   4.0000  12.0107
    115    4 C     6      3.140337     22.322805      1.227769   4.0000  12.0107
    116    4 C     6     27.862102      8.511184      2.627783   4.0000  12.0107
    117    4 C     6     18.309720     21.086435      3.226953   4.0000  12.0107
    118    4 C     6     12.684325      7.274580      0.633851   4.0000  12.0107
    119    4 C     6      2.810023     21.089364      0.631453   4.0000  12.0107
    120    4 C     6     28.191929      7.277709      3.224501   4.0000  12.0107
    121    4 C     6     18.957291     20.628350      4.325127   4.0000  12.0107
    122    4 C     6     12.036873      6.817625     -0.464713   4.0000  12.0107
    123    4 C     6      3.458405     20.632243     -0.466644   4.0000  12.0107
    124    4 C     6     27.543422      6.821049      4.322725   4.0000  12.0107
    125    4 C     6     19.805738     21.506893      1.139129   4.0000  12.0107
    126    4 C     6     11.187430      7.695266      2.721339   4.0000  12.0107
    127    4 C     6      4.306224     21.511209      2.719305   4.0000  12.0107
    128    4 C     6     26.696036      7.700629      1.136618   4.0000  12.0107
    129    4 C     6     20.171040     22.720170      4.432087   4.0000  12.0107
    130    4 C     6     10.820068      8.907117     -0.569726   4.0000  12.0107
    131    4 C     6      4.671482     22.723970     -0.572599   4.0000  12.0107
    132    4 C     6     26.331188      8.913373      4.428076   4.0000  12.0107
    133    4 C     6     18.804625     19.225338      0.817100   4.0000  12.0107
    134    4 C     6     12.192286      5.415767      3.043007   4.0000  12.0107
    135    4 C     6      3.306020     19.229500      3.041740   4.0000  12.0107
    136    4 C     6     27.695285      5.418214      0.814696   4.0000  12.0107
    137    5 H     1     11.515947     14.202874      4.562059   1.0000   1.0079
    138    5 H     1     13.461719     15.355354      5.547453   1.0000   1.0079
    139    5 H     1     15.989370     13.716687      2.557771   1.0000   1.0079
    140    5 H     1     14.077167     12.346652      1.701170   1.0000   1.0079
    141    5 H     1     13.033927      8.950896      1.952662   1.0000   1.0079
    142    5 H     1     13.353246      6.586344      1.140702   1.0000   1.0079
    143    5 H     1     10.088137      9.556213     -1.037343   1.0000   1.0079
    144    5 H     1      6.516239     15.807752      1.224287   1.0000   1.0079
    145    5 H     1      8.616216     14.723614      2.076576   1.0000   1.0079
    146    5 H     1      8.324602     11.777600     -0.950837   1.0000   1.0079
    147    5 H     1     29.588581     12.369107      2.158267   1.0000   1.0079
    148    5 H     1     27.016047     14.208180     -0.703454   1.0000   1.0079
    149    5 H     1     28.953515     15.374252     -1.688141   1.0000   1.0079
    150    5 H     1      0.490127     13.752864      1.303215   1.0000   1.0079
[...]
 flops    80 x    32 x    91           1397760000       0.0%    100.0%      0.0%
 flops    74 x    32 x    80           2045952000       0.0%    100.0%      0.0%
 flops    91 x    32 x    80           2096640000       0.0%    100.0%      0.0%
 flops    80 x    32 x    80           3686400000       0.0%    100.0%      0.0%
 flops     6 x     8 x     6           4800135168       0.0%    100.0%      0.0%
 flops     6 x    17 x     8           8538937344       0.0%    100.0%      0.0%
 flops    17 x     6 x     8           8538937344       0.0%    100.0%      0.0%
 flops     6 x     8 x    17          38534418432       0.0%    100.0%      0.0%
 flops    17 x     8 x     6          38534418432       0.0%    100.0%      0.0%
 flops     6 x     6 x    32          43433349120       0.0%    100.0%      0.0%
 flops    17 x    17 x     8          69052725952       0.0%    100.0%      0.0%
 flops     6 x   328 x     6         152351539200       0.0%    100.0%      0.0%
 flops     6 x    32 x     6         193512996864       0.0%    100.0%      0.0%
 flops    17 x     8 x    17         309345747968       0.0%    100.0%      0.0%
 flops     6 x    17 x    32         341557493760       0.0%    100.0%      0.0%
 flops    17 x     6 x    32         341557493760       0.0%    100.0%      0.0%
 flops     6 x   328 x    17        1223044300800       0.0%    100.0%      0.0%
 flops    17 x   328 x     6        1223044300800       0.0%    100.0%      0.0%
 flops     6 x    32 x    17        1553479335936       0.0%    100.0%      0.0%
 flops    17 x    32 x     6        1553479335936       0.0%    100.0%      0.0%
 flops    17 x    17 x    32        2762109038080       0.0%    100.0%      0.0%
 flops    17 x   328 x    17        9818327859200       0.0%    100.0%      0.0%
 flops    17 x    32 x    17       12470986891264       0.0%    100.0%      0.0%
 flops   328 x   328 x     6       34702295040000       0.0%    100.0%      0.0%
 flops   328 x   328 x    17      278582312960000       0.0%    100.0%      0.0%
 flops inhomo. stacks                  1854600384     100.0%      0.0%      0.0%
 flops total                       345.466718E+12       0.0%    100.0%      0.0%
 flops max/rank                    749.797266E+09       0.0%    100.0%      0.0%
 matmuls inhomo. stacks                      4378     100.0%      0.0%      0.0%
 matmuls total                         1854701519       0.0%    100.0%      0.0%
 number of processed stacks             211345554       0.0%    100.0%      0.0%
 average stack size                                     1.0       8.8       0.0
 marketing flops                   349.001325E+12
 -------------------------------------------------------------------------------
 # multiplications                           5268
 max memory usage/rank               2.058813E+09
 # max total images/rank                        2
 # max 3D layers                                1
 # MPI messages exchanged               164530176
 MPI messages size (bytes):
  total size                         8.143386E+12
  min size                           0.000000E+00
  max size                           3.104192E+06
  average size                      49.494785E+03
 MPI breakdown and total messages size (bytes):
             size <=      128            69603361                        0
       128 < size <=     8192             2526879              13164685312
      8192 < size <=    32768            25936448             531183411200
     32768 < size <=   131072            65811200            6437010944000
    131072 < size <=  4194304              652288            1165265920000
   4194304 < size <= 16777216                   0                        0
  16777216 < size                               0                        0
 -------------------------------------------------------------------------------

 *** WARNING in dbcsr_mm.F:291 :: Using a non-square number of MPI ranks ***
 *** might lead to poor performance. Used ranks: 512 Suggested: 529 1024 ***

 -------------------------------------------------------------------------------
 -                                                                             -
 -                      DBCSR MESSAGE PASSING PERFORMANCE                      -
 -                                                                             -
 -------------------------------------------------------------------------------
 ROUTINE             CALLS      AVE VOLUME [Bytes]
 MP_Bcast              151                     12.
 MP_Allreduce        19394                      8.
 MP_Alltoall        101314                 608125.
 MP_ISend           674286                  26147.
 MP_IRecv           674278                  25887.
 -------------------------------------------------------------------------------

 -------------------------------------------------------------------------------
 -                                                                             -
 -                                DBM STATISTICS                               -
 -                                                                             -
 -------------------------------------------------------------------------------
    M  x    N  x    K                                          COUNT     PERCENT
 -------------------------------------------------------------------------------

 -------------------------------------------------------------------------------
 -                                                                             -
 -                                GRID STATISTICS                              -
 -                                                                             -
 -------------------------------------------------------------------------------
 LP    KERNEL             BACKEND                              COUNT     PERCENT
 4     collocate ortho    CPU                             1472378064      24.77%
 4     integrate ortho    CPU                             1466884116      24.67%
 3     collocate ortho    CPU                             1243512228      20.92%
 3     integrate ortho    CPU                             1238872257      20.84%
 2     collocate ortho    CPU                              262017972       4.41%
 2     integrate ortho    CPU                              261040293       4.39%
 0     collocate general  CPU                                 188416       0.00%
 0     integrate general  CPU                                  94208       0.00%
 -------------------------------------------------------------------------------

 MEMORY| Estimated peak process memory [MiB]                                1637

 -------------------------------------------------------------------------------
 ----                             MULTIGRID INFO                            ----
 -------------------------------------------------------------------------------
 count for grid        1:       46044191          cutoff [a.u.]          400.00
 count for grid        2:       33413103          cutoff [a.u.]          133.33
 count for grid        3:       21725816          cutoff [a.u.]           44.44
 count for grid        4:       17079059          cutoff [a.u.]           14.81
 count for grid        5:       10354810          cutoff [a.u.]            4.94
 total gridlevel count  :      128616979

 -------------------------------------------------------------------------------
 -                                                                             -
 -                         MESSAGE PASSING PERFORMANCE                         -
 -                                                                             -
 -------------------------------------------------------------------------------

 ROUTINE             CALLS      AVE VOLUME [Bytes]
 MP_Group                5
 MP_Bcast             1938                 859005.
 MP_Allreduce       139000                   7666.
 MP_Sync             13650
 MP_Alltoall         17675                1442202.
 MP_SendRecv       1232532                   4851.
 MP_ISendRecv      1227933                   4851.
 MP_Wait           1541437
 MP_comm_split         805
 MP_ISend           649992                  30267.
 MP_IRecv           856090                  22982.
 -------------------------------------------------------------------------------


 -------------------------------------------------------------------------------
 -                                                                             -
 -                           R E F E R E N C E S                               -
 -                                                                             -
 -------------------------------------------------------------------------------
 
 CP2K version 2024.1 (Development Version), the CP2K developers group (2024).
 CP2K is freely available from https://www.cp2k.org/ .

 Kuehne,Thomas D.; Iannuzzi,Marcella; Del Ben,Mauro;
 Rybkin,Vladimir V.; Seewald,Patrick; Stein,Frederick; Laino,Teodoro;
 Khaliullin,Rustam Z.; Schuett,Ole; Schiffmann,Florian; Golze,Dorothea;
 Wilhelm,Jan; Chulkov,Sergey; Bani-Hashemian,Mohammad Hossein;
 Weber,Valery; Borstnik,Urban; Taillefumier,Mathieu;
 Jakobovits,Alice Shoshana; Lazzaro,Alfio; Pabst,Hans; Mueller,Tiziano;
 Schade,Robert; Guidon,Manuel; Andermatt,Samuel; Holmberg,Nico;
 Schenter,Gregory K.; Hehn,Anna; Bussy,Augustin; Belleflamme,Fabian;
 Tabacchi,Gloria; Gloess,Andreas; Lass,Michael; Bethune,Iain;
 Mundy,Christopher J.; Plessl,Christian; Watkins,Matt;
 VandeVondele,Joost; Krack,Matthias; Hutter,Juerg. 
 The Journal of Chemical Physics, 152 (19), (2020). 
 CP2K: An electronic structure and molecular dynamics software package -
 Quickstep: Efficient and accurate electronic structure calculations.
 https://doi.org/10.1063/5.0007045

 Goerigk, Lars; Hansen, Andreas; Bauer, Christoph; Ehrlich, Stephan;
 Najibi, Asim; Grimme, Stefan. , 19 (48), (2017). 
 A look at the density functional theory zoo with the advanced GMTKN55 database
 for general main group thermochemistry, kinetics and noncovalent interactions.
 https://doi.org/10.1039/C7CP04913G

 Schuett, Ole; Messmer, Peter; Hutter, Juerg; VandeVondele, Joost. 
 Electronic Structure Calculations on Graphics Processing Units, John
 Wiley & Sons, Ltd, 173-190 (2016). 
 GPU-Accelerated Sparse Matrix-Matrix Multiplication for
 Linear Scaling Density Functional Theory.
 https://doi.org/10.1002/9781118670712.ch8

 Heinecke, A; Henry, G; Hutchinson, M; Pabst, H. 
 Proceedings of Intl. Supercomputing Conference, 981-991 (2016). 
 LIBXSMM: Accelerating Small Matrix Multiplications
 by Runtime Code Generation.
 https://doi.org/10.1109/SC.2016.83

 Borstnik, U; VandeVondele, J; Weber, V; Hutter, J. 
 PARALLEL COMPUTING, 40 (5-6), 47-58 (2014). 
 Sparse matrix multiplication: The distributed block-compressed sparse
 row library.
 https://doi.org/10.1016/j.parco.2014.03.012

 Hutter, J; Iannuzzi, M; Schiffmann, F; VandeVondele, J. 
 WIREs Comput Mol Sci., 4 (1), 15-25 (2014). 
 CP2K: atomistic simulations of condensed matter systems.
 https://doi.org/10.1002/wcms.1159

 Grimme, S; Ehrlich, S; Goerigk, L. 
 JOURNAL OF COMPUTATIONAL CHEMISTRY, 32, 1456 (2011). 
 Effect of the damping function in dispersion corrected density functional theory.
 https://doi.org/10.1002/jcc.21759

 Grimme, S; Antony, J; Ehrlich, S; Krieg, H. 
 JOURNAL OF CHEMICAL PHYSICS, 132 (15), 154104 (2010). 
 A consistent and accurate ab initio parametrization of density
 functional dispersion correction (DFT-D) for the 94 elements H-Pu.
 https://doi.org/10.1063/1.3382344

 VandeVondele, J; Hutter, J. 
 JOURNAL OF CHEMICAL PHYSICS, 127 (11), 114105 (2007). 
 Gaussian basis sets for accurate calculations on molecular systems in
 gas and condensed phases.
 https://doi.org/10.1063/1.2770708

 Krack, M. 
 THEORETICAL CHEMISTRY ACCOUNTS, 114 (1-3), 145-152 (2005). 
 Pseudopotentials for H to Kr optimized for gradient-corrected
 exchange-correlation functionals.
 https://doi.org/10.1007/s00214-005-0655-y

 VandeVondele, J; Krack, M; Mohamed, F; Parrinello, M; Chassaing, T;
 Hutter, J. COMPUTER PHYSICS COMMUNICATIONS, 167 (2), 103-128 (2005). 
 QUICKSTEP: Fast and accurate density functional calculations using a
 mixed Gaussian and plane waves approach.
 https://doi.org/10.1016/j.cpc.2004.12.014

 Frigo, M; Johnson, SG. 
 PROCEEDINGS OF THE IEEE, 93 (2), 216-231 (2005). 
 The design and implementation of FFTW3.
 https://doi.org/10.1109/JPROC.2004.840301

 Iannuzzi, M; Chassaing, T; Wallman, T; Hutter, J. 
 CHIMIA, 59 (7-8), 499-503 (2005). 
 Ground and excited state density functional calculations with the
 Gaussian and augmented-plane-wave method.
 https://doi.org/10.2533/000942905777676164

 VandeVondele, J; Hutter, J. 
 JOURNAL OF CHEMICAL PHYSICS, 118 (10), 4365-4369 (2003). 
 An efficient orbital transformation method for electronic structure
 calculations.
 https://doi.org/10.1063/1.1543154

 Martin,Richard L.. 
 The Journal of Chemical Physics, 118 (11), 4775-4777 (2003). 
 Natural transition orbitals.
 https://doi.org/10.1063/1.1558471

 Hartwigsen, C; Goedecker, S; Hutter, J. 
 PHYSICAL REVIEW B, 58 (7), 3641-3662 (1998). 
 Relativistic separable dual-space Gaussian pseudopotentials from H to Rn.
 https://doi.org/10.1103/PhysRevB.58.3641

 Lippert, G; Hutter, J; Parrinello, M. 
 MOLECULAR PHYSICS, 92 (3), 477-487 (1997). 
 A hybrid Gaussian and plane wave density functional scheme.
 https://doi.org/10.1080/002689797170220

 Perdew, JP; Burke, K; Ernzerhof, M. 
 PHYSICAL REVIEW LETTERS, 77 (18), 3865-3868 (1996). 
 Generalized gradient approximation made simple.
 https://doi.org/10.1103/PhysRevLett.77.3865

 Goedecker, S; Teter, M; Hutter, J. 
 PHYSICAL REVIEW B, 54 (3), 1703-1710 (1996). 
 Separable dual-space Gaussian pseudopotentials.
 https://doi.org/10.1103/PhysRevB.54.1703


 -------------------------------------------------------------------------------
 -                                                                             -
 -                                T I M I N G                                  -
 -                                                                             -
 -------------------------------------------------------------------------------
 SUBROUTINE                       CALLS  ASD         SELF TIME        TOTAL TIME
                                MAXIMUM       AVERAGE  MAXIMUM  AVERAGE  MAXIMUM
 CP2K                                 1  1.0     0.05     0.07 26242.99 26243.10
 qs_energies                          1  2.0     0.00     0.01 26241.58 26241.69
 qs_energies_properties               1  3.0     0.00     0.01 25837.36 25837.47
 tddfpt                               1  4.0     0.00     0.01 25837.36 25837.47
 tddfpt_soc_energies                  1  5.0     0.00     0.00 25822.14 25822.26
 tddfpt_energies                      2  6.0     0.00     0.01 24921.63 24921.75
 tddfpt_davidson_solver               4  7.0     0.00     0.02 18519.77 18519.86
 tddfpt_compute_Aop_evects            4  8.0     0.00     0.01 11582.85 11582.92
 tddfpt_orthonormalize_psi1_psi       6  7.7     0.19     0.67  9930.43  9931.92
 fhxc_kernel                          4  9.0     0.02     0.06  9820.83  9820.93
 cp_fm_trace_a1b1t1_aa           120600  8.7   227.66   301.09  7568.42  7574.27
 mp_sum_dv                       121958  9.7  7404.61  7449.53  7404.61  7449.53
 cp_dbcsr_sm_fm_multiply           3619  9.1     0.08     0.17  7343.21  7355.34
 dbcsr_multiply_generic            5268 11.1     0.50     0.84  6542.42  6649.12
 multiply_cannon                   5268 12.1    13.59    20.63  4538.08  4693.82
 multiply_cannon_loop              5268 13.1     7.03    12.96  4185.58  4313.70
 cp_dbcsr_sm_fm_multiply_core      3619 10.1     0.01     0.03  4171.03  4267.69
 pw_transfer                      16852 12.6     0.48     0.64  3487.20  3493.96
 fft_wrap_pw1pw2                  16050 13.6     0.05     0.08  3486.62  3493.38
 fft3d_ps                         16050 15.6    22.67    39.31  3478.60  3486.04
 multiply_cannon_multrec         168576 14.1  2806.74  3008.65  2806.81  3008.70
 tddfpt_print_nto_analysis            2  7.0     0.07     0.11  2759.86  2760.33
 cp_dbcsr_plus_fm_fm_t_native       801 10.0     0.01     0.03  2634.38  2663.80
 mp_alltoall_z22v                 16050 17.6  2520.64  2565.65  2520.64  2565.65
 dbcsr_complete_redistribute      10079 11.2     1.17     2.17  2417.23  2477.17
 copy_dbcsr_to_fm                  4042  9.9     0.05     0.12  2327.87  2430.57
 fft_wrap_pw1pw2_400               9630 14.7     0.70     0.98  2298.83  2311.65
 mp_waitall_1                   2360613 14.5  1855.28  2177.12  1855.28  2177.12
 qs_rho_update_rho_low              804 10.0     0.01     0.03  2081.14  2106.78
 calculate_rho_elec                 804 11.0     0.09     0.17  2081.13  2106.77
 mp_alltoall_d11v                 43977 12.4  1657.50  1814.37  1657.50  1814.37
 mp_alltoall_i22                  14124 12.1  1637.15  1772.74  1637.15  1772.74
 tddfpt_apply_energy_diff             4  9.0     0.01     0.01  1762.01  1762.07
 integrate_v_rspace                 801 10.0     0.02     0.06  1737.97  1742.37
 tddfpt_apply_xc_analytic           800 10.0     0.40     0.56  1650.55  1654.96
 density_rs2pw                      804 12.0     0.02     0.05  1558.56  1582.89
 dbcsr_desymmetrize_deep           4045 10.9     0.11     0.25  1410.39  1551.40
 parallel_gemm_fm                  5683  8.6     0.01     0.03  1423.23  1504.57
 parallel_gemm_fm_cosma            5683  9.6  1423.22  1504.56  1423.22  1504.56
 copy_fm_to_dbcsr                  6037 10.5     0.02     0.03  1412.75  1460.01
 xc_pw_derive                      6015 11.8     0.03     0.04  1449.20  1453.71
 multiply_cannon_metrocomm3      168576 14.1     0.30     0.39  1027.82  1366.72
 x_to_yz                           5618 16.2     6.80    21.82  1317.15  1328.10
 potential_pw2rs                    801 11.0     0.03     0.06  1288.33  1291.10
 mp_sum_l                         19471 11.8  1135.60  1178.65  1135.60  1178.65
 yz_to_x                           4012 17.4     0.68     1.44   958.35   963.54
 tddfpt_soc                           1  6.0     0.00     0.00   898.09   898.09
 tddfpt_soc_rcs                       1  7.0     0.13     1.72   898.09   898.09
 mp_sync                          13650 17.1   798.63   886.61   798.63   886.61
 xc_calc_2nd_deriv_analytical       800 11.0     7.94    13.55   796.04   796.81
 xc_pw_divergence                   801 12.0     0.01     0.02   786.84   787.84
 transfer_rs2pw                    4022 13.0     0.02     0.06   664.51   761.44
 make_m2s                         10536 12.1     0.18     0.25   711.95   746.03
 make_images                      10536 13.1    29.96    32.01   700.84   730.84
 mp_waitany                       70704 14.5   608.14   720.11   608.14   720.11
 multiply_cannon_metrocomm1      168576 14.1     0.16     0.23   339.21   685.48
 make_images_sizes                10536 14.1     0.01     0.05   567.91   623.19
 mp_alltoall_i44                  10536 15.1   567.90   623.18   567.90   623.18
 soc_dipol                            1  8.0     0.00     0.01   566.14   566.17
 get_rcs_amew_op                      1  9.0     0.05     0.12   564.55   564.61
 -------------------------------------------------------------------------------

 The number of warnings for this run is : 1
 
 -------------------------------------------------------------------------------
  **** **** ******  **  PROGRAM ENDED AT                 2024-03-09 20:21:03.825
 ***** ** ***  *** **   PROGRAM RAN ON                               nesh-srp116
 **    ****   ******    PROGRAM RAN BY                                  suphc355
 ***** **    ** ** **   PROGRAM PROCESS ID                                393621
  **** **  *******  **  PROGRAM STOPPED IN /gxfs_work/cau/suphc355/MOFs/CAU7_TAB
                                           A/SOC/TZ
