 hostname is         elgar

 escf (elgar) : TURBOMOLE V7.0( 19819 ) 16 Jun 2015 at 11:29:46
 Copyright (C) 2015 TURBOMOLE GmbH, Karlsruhe


    2024-02-12 11:55:18.360 




                                e s c f

                       quantum chemistry group
                       university of karlsruhe
                               germany


          integral direct evaluation of 

                    * excitation energies and transition moments 
                    * dynamic response properties 
                    * stabilities



          references (see also programs dscf and ridft) 

          implementation and benchmarks (review) 
          F. Furche and D. Rappoport,  
          "Density functional methods for excited states: 
          equilibrium structure and electronic spectra",
          ch. III of "Computational Photochemistry", ed. by 
          M. Olivucci, vol. 16 of "Theoretical and Computational 
          Chemistry", Elsevier, Amsterdam, 2005.

          two-component TDDFT with spin-orbit coupling 
          M. Kuehn and F. Weigend, 
          J. Chem. Theory Comput. 9 (2013), 5341.

          GW quasi particle energies
          M. J. van Setten, F. Weigend, and F. Evers,
          J. Chem. Theory Comput. 9 (2013), 232.

          Current-density dependent meta-GGA Linear Response
          J. E. Bates and F. Furche, 
          J. Chem. Phys. 137 (2012), 164105.

          spin-flip method 
          M. Kuehn and F. Weigend, 
          Chem. Phys. Chem. 12 (2011), 3331.

          RI-J method 
          R. Bauernschmitt, M. Haeser, O. Treutler, and R. Ahlrichs,
          Chem. Phys. Lett. 264 (1997), 573.

          density functional implementation               
          R. Bauernschmitt and R. Ahlrichs,
          Chem. Phys. Lett. 256 (1996), 454.
          R. Bauernschmitt and R. Ahlrichs,
          J. Chem. Phys. 104 (1996), 9047.

          UHF extension (RPA and CIS)
          C. Ochsenfeld, J. Gauss, and R. Ahlrichs, 
          J. Chem. Phys. 103 (1995), 7401.

          integral direct algorithm                 
          H. Weiss, R. Ahlrichs, and M. Haeser, 
          J. Chem. Phys. 99 (1993), 1262.
                                     




              +--------------------------------------------------+
              | Atomic coordinate, charge and isotop information |
              +--------------------------------------------------+

                    atomic coordinates            atom    charge  isotop
          0.00000000    0.00000000    1.60347294    c      6.000     0
          0.00000000    0.00000000   -3.59896024    c      6.000     0
          2.29878830    0.00000000    0.33655082    c      6.000     0
         -2.29878830    0.00000000    0.33655082    c      6.000     0
         -2.28322845    0.00000000   -2.28896805    c      6.000     0
          2.28322845    0.00000000   -2.28896805    c      6.000     0
          4.04004563    0.00000000    1.40275882    h      1.000     0
         -4.04004563    0.00000000    1.40275882    h      1.000     0
         -4.05541522    0.00000000   -3.31160563    h      1.000     0
          4.05541522    0.00000000   -3.31160563    h      1.000     0
          0.00000000    0.00000000   -5.64617213    h      1.000     0
          0.00000000    0.00000000    4.40465228    n      7.000     0
          2.04887035    0.00000000    5.47976761    o      8.000     0
         -2.04887035    0.00000000    5.47976761    o      8.000     0
 
       center of nuclear mass  :    0.00000000    0.00000000    1.27226729
       center of nuclear charge:    0.00000000    0.00000000    1.15067268

              +--------------------------------------------------+
              |               basis set information              |
              +--------------------------------------------------+

              we will work with the 1s 3p 5d 7f 9g ... basis set
              ...i.e. with spherical basis functions...

   type   atoms  prim   cont   basis
   ---------------------------------------------------------------------------
    c        6     46     31   def2-TZVP   [5s3p2d1f|11s6p2d1f]
    h        5      8      6   def2-TZVP   [3s1p|5s1p]
    n        1     46     31   def2-TZVP   [5s3p2d1f|11s6p2d1f]
    o        2     46     31   def2-TZVP   [5s3p2d1f|11s6p2d1f]
   ---------------------------------------------------------------------------
   total:   14    454    309
   ---------------------------------------------------------------------------

   total number of primitive shells          :   66
   total number of contracted shells         :  119
   total number of cartesian basis functions :  354
   total number of SCF-basis functions       :  309


 residuum convergence criterium   :  0.10E-04


 integral neglect threshold       :  0.94E-11
 integral storage threshold THIZE :  0.10E-04
 integral storage threshold THIME :         5

 CI SINGLES SINGLET-CALCULATION (TAMM-DANCOFF-APPROXIMATION)
 
             FOUND DFT-FLAG !
 

 symmetry group of the molecule :   c2v

 the group has the following generators :
   c2(z)
   mirror plane sigma(xz)

    4 symmetry operations found

 there are 4 real representations :   a1   a2   b1   b2  

 maximum number of shells which are related by symmetry :  2

 IRREPs of excited states :   a1   a2   b1   b2  
 

 determining totally symmetric integral contributions 
    - equivalent to irreducible tensor elements - 
 which can be formed within each triple of representations :

             representation triple      contributions

              a1    a1    a1              1
              a1    a2    a2              1
              a1    b1    b1              1
              a1    b2    b2              1
              a2    a1    a2              1
              a2    a2    a1              1
              a2    b1    b2              1
              a2    b2    b1              1
              b1    a1    b1              1
              b1    a2    b2              1
              b1    b1    a1              1
              b1    b2    a2              1
              b2    a1    b2              1
              b2    a2    b1              1
              b2    b1    a2              1
              b2    b2    a1              1

    mo occupation :
   irrep   mo's   occupied
    a1     119       16
    a2      41        2
    b1      95       11
    b2      54        3
 
 number of basis functions   :          309
 number of occupied orbitals :           32
 
  
           ------------------
           density functional
           ------------------
 PBE0 hybrid functional
 exchange:    3/4 (LDA+PBE) + 1/4 HF
 correlation: LDA (PW) + PBE
 spherical integration : Lebedev's spherical grid
 spherical gridsize    :           6
    i.e. gridpoints    :         974
 value for diffuse not defined
 radial integration    : Chebyshev 2nd kind (scaling 3)
 radial gridsize       :          10
 integration cells     :           9
 partition function    : becke
 partition sharpness   :           3
  

 biggest AO integral is expected to be     7.998976882
  MOs are in ASCII format !


 reading orbital data $scfmo  from file mos . 

 orbital characterization : scfconv=8
 
 preparing numerical integration ....
          Overall gridpoints after grid construction =        123467

 Calculating ground state density on molecular grid

 Integral of ground state density: N =   63.99999983305485    


 all orbitals will be included in the transformation

 number of non-frozen orbitals          :   309
 number of non-frozen occupied orbitals :    32



 dimension of super-tensorspace: 1

          IRREP   tensor space dimension   number of roots

           a1             2803                  10
           a2             1643                  10
           b1             2696                  10
           b2             1722                  10

 maximum number of Davidson iterations set to   25


 machine precision: 2.22D-16


 logfile ciss_a1   will be constructed

 logfile ciss_a2   will be constructed

 logfile ciss_b1   will be constructed

 logfile ciss_b2   will be constructed


                       Block Davidson iteration


 total number of roots to be determined:  40


 maximum core memory set to   338 MB,
 corresponding to      348 vectors in CAO basis


 maximum number of simultaneously treated vectors (including degeneracy):       72


 Iteration IRREP Converged      Max. Euclidean
                 roots          residual norm

    1       a1       0        1.928177560393257D-01
            a2       0        4.225014623248390D-02
            b1       0        1.815702941923293D-01
            b2       0        5.019855477961715D-02
 
    2       a1       0        2.228321450336234D-02
            a2       0        8.544114867451521D-03
            b1       0        4.085901186619672D-02
            b2       0        1.094172094308956D-02
 
    3       a1       0        3.243192083200965D-03
            a2       0        1.512165542734616D-03
            b1       0        5.682704557022582D-03
            b2       0        2.760754955771488D-03
 
    4       a1       0        5.622372852397609D-04
            a2       0        2.323851338422841D-04
            b1       0        7.625117757325377D-04
            b2       0        3.221959213268007D-04
 
    5       a1       2        1.205124707643998D-04
            a2       7        4.505407087967253D-05
            b1       2        1.118258183638401D-04
            b2       6        3.971001013690730D-05
 
    6       a1       9        1.505001212284713D-05
            a2      10        7.309163644469564D-06
            b1       9        1.592647511132714D-05
            b2      10        5.240291220868838D-06
 
    7       a1      10        9.703414233421163D-06
            a2      10        7.309163644469564D-06
            b1      10        7.704726370621997D-06
            b2      10        5.240291220868838D-06
 

 converged!

 Eigenpairs written on logfile ciss_a1  

 Eigenpairs written on logfile ciss_a2  

 Eigenpairs written on logfile ciss_b1  

 Eigenpairs written on logfile ciss_b2  



 IRREP   Vector     Eigenvalue           Euclidean residual norm

  a1        1    1.882452344509155D-01    9.703414233421163D-06
            2    2.513406815062524D-01    1.330678385732713D-06
            3    2.625045325756066D-01    3.355776040835036D-06
            4    2.835002166679148D-01    1.515904639765552D-06
            5    3.003980178514969D-01    2.928510678166123D-06
            6    3.435004650816869D-01    3.480409044762205D-06
            7    3.645735523447792D-01    1.772971384724596D-06
            8    3.706592440454829D-01    3.784963128200533D-06
            9    3.789859049219230D-01    5.432569304301052D-06
           10    3.908587968502804D-01    1.614941678604497D-06

  a2        1    1.440877496966400D-01    6.477841406206761D-07
            2    2.444511355175247D-01    1.703400584460288D-06
            3    2.536791481642957D-01    1.690395389024622D-06
            4    2.601831847031112D-01    1.549837994535425D-06
            5    2.940787884927351D-01    7.309163644469564D-06
            6    3.081796907677367D-01    5.548326602261143D-06
            7    3.222278526957577D-01    1.493339912500358D-06
            8    3.295308281599519D-01    4.410403717746494D-06
            9    3.376474743383973D-01    1.895566890664701D-06
           10    3.407183238774836D-01    5.458626072997536D-06

  b1        1    1.709883494636480D-01    2.924295712533363D-06
            2    2.280610212903756D-01    4.191540926605161D-06
            3    2.406272703771727D-01    1.281688255245007D-06
            4    2.946770458466622D-01    1.879145328987295D-06
            5    3.097465457395142D-01    4.825206568341509D-06
            6    3.257197052120689D-01    1.515709719198886D-06
            7    3.445528457334027D-01    2.717708414314941D-06
            8    3.659498689634918D-01    7.704726370621997D-06
            9    3.761904318184012D-01    1.693911206448852D-06
           10    3.789437658799223D-01    2.672976192154634D-06

  b2        1    1.620719414263478D-01    2.519831265319621D-06
            2    2.425048145108094D-01    2.898897782891645D-06
            3    2.640573791796361D-01    4.557587548346992D-06
            4    2.729900550650229D-01    4.916798978238739D-06
            5    2.907789984517033D-01    5.051724066295364D-06
            6    2.989512920209860D-01    5.240291220868838D-06
            7    3.302746320120250D-01    9.603259556742594D-07
            8    3.420288680890444D-01    3.215330704658731D-06
            9    3.440112821440809D-01    3.805199898866031D-06
           10    3.477626118119949D-01    2.346450166938993D-06
 




                    Selection rules for point group c2v 


 Subduction with respect to c2v :

    Polar vector representation: a1, b1, b2                  

    Axial vector representation: a2, b1, b2                  

    Symmetric second rank tensor representation: a1, a2, b1, b2              




                            Ground state


 Total energy:                           -436.4305099089000    

 Charge:

               elec          nuc         total

           -64.000000    64.000000     0.000000


 Electric dipole moment:

               elec          nuc         total   

    x        0.000000     0.000000     0.000000    Norm:              1.829572
    y        0.000000     0.000000     0.000000
    z      -75.472623    73.643051    -1.829572    Norm / debye:      4.650343


 Electric quadrupole moment:

               elec          nuc         total   

   xx     -293.817853   258.673356   -35.144497
   yy      -39.256102     0.000000   -39.256102    1/3*trace:       -39.715104
   zz     -876.118819   831.374104   -44.744715
   xy        0.000000     0.000000     0.000000
   xz        0.000000     0.000000     0.000000    Anisotropy:        8.342492
   yz        0.000000     0.000000     0.000000



 ==============================================================================

                              I R R E P   a1  

 ==============================================================================


 Excitation is electric dipole allowed

 Excitation is magnetic dipole forbidden

 Excitation is electric quadrupole allowed




                         1 singlet a1 excitation


 Total energy:                           -436.2422646744491    

 Excitation energy:                      0.1882452344509155    

 Excitation energy / eV:                  5.122415651758393    

 Excitation energy / nm:                  242.0425292194079    

 Excitation energy / cm^(-1):             41315.05331214959    


 Oscillator strength:

    velocity representation:             0.1200872285727399E-01

    length representation:               0.2592330530135473    

    mixed representation:                0.5579478370855743E-01


 Rotatory strength:

    velocity representation:              0.000000000000000    

    velocity rep. / 10^(-40)erg*cm^3:     0.000000000000000    

    length representation:                0.000000000000000    

    length rep. / 10^(-40)erg*cm^3:       0.000000000000000    


 Dominant contributions:

    occ. orbital  energy / eV   virt. orbital  energy / eV   |coeff.|^2*100
       3 b2         -8.24           4 b2         -2.55           91.8
 

 Change of electron number:

            -0.000000


 Electric transition dipole moment (velocity rep.):

    x        0.000000        Norm:                  0.309337
    y        0.000000
    z        0.309337        Norm / debye:          0.786262


 Electric transition dipole moment (length rep.):

    x        0.000000        Norm:                  1.437238
    y        0.000000
    z        1.437238        Norm / debye:          3.653123


 Magnetic transition dipole moment / i:

    x        0.000000        Norm:                  0.000000
    y        0.000000
    z        0.000000        Norm / Bohr mag.:      0.000000


 Electric quadrupole transition moment:

   xx       -0.103330
   yy       -0.301553        1/3*trace:             1.061265
   zz        3.588679
   xy        0.000000
   xz        0.000000        Anisotropy:            3.795005
   yz        0.000000




                         2 singlet a1 excitation


 Total energy:                           -436.1791692273937    

 Excitation energy:                      0.2513406815062524    

 Excitation energy / eV:                  6.839330858104428    

 Excitation energy / nm:                  181.2812489683114    

 Excitation energy / cm^(-1):             55162.90325347108    


 Oscillator strength:

    velocity representation:             0.1695030098533646E-01

    length representation:               0.2134040029583826    

    mixed representation:                0.6014367865054662E-01


 Rotatory strength:

    velocity representation:              0.000000000000000    

    velocity rep. / 10^(-40)erg*cm^3:     0.000000000000000    

    length representation:                0.000000000000000    

    length rep. / 10^(-40)erg*cm^3:       0.000000000000000    


 Dominant contributions:

    occ. orbital  energy / eV   virt. orbital  energy / eV   |coeff.|^2*100
       2 a2         -8.12           3 a2         -0.99           65.0
       3 b2         -8.24           5 b2         -0.17           28.3
 

 Change of electron number:

             0.000000


 Electric transition dipole moment (velocity rep.):

    x        0.000000        Norm:                  0.318056
    y        0.000000
    z       -0.318056        Norm / debye:          0.808423


 Electric transition dipole moment (length rep.):

    x        0.000000        Norm:                  1.128536
    y        0.000000
    z       -1.128536        Norm / debye:          2.868475


 Magnetic transition dipole moment / i:

    x        0.000000        Norm:                  0.000000
    y        0.000000
    z        0.000000        Norm / Bohr mag.:      0.000000


 Electric quadrupole transition moment:

   xx        0.593713
   yy        0.160426        1/3*trace:            -0.154778
   zz       -1.218473
   xy        0.000000
   xz        0.000000        Anisotropy:            1.639073
   yz        0.000000




                         3 singlet a1 excitation


 Total energy:                           -436.1680053763243    

 Excitation energy:                      0.2625045325756066    

 Excitation energy / eV:                  7.143114832335501    

 Excitation energy / nm:                  173.5716797456701    

 Excitation energy / cm^(-1):             57613.08534410738    


 Oscillator strength:

    velocity representation:             0.1225477799334077E-03

    length representation:               0.3736387779395126E-02

    mixed representation:                0.6766727623712866E-03


 Rotatory strength:

    velocity representation:              0.000000000000000    

    velocity rep. / 10^(-40)erg*cm^3:     0.000000000000000    

    length representation:                0.000000000000000    

    length rep. / 10^(-40)erg*cm^3:       0.000000000000000    


 Dominant contributions:

    occ. orbital  energy / eV   virt. orbital  energy / eV   |coeff.|^2*100
       1 a2         -9.10           3 a2         -0.99           96.5
 

 Change of electron number:

            -0.000000


 Electric transition dipole moment (velocity rep.):

    x        0.000000        Norm:                  0.026462
    y        0.000000
    z        0.026462        Norm / debye:          0.067261


 Electric transition dipole moment (length rep.):

    x        0.000000        Norm:                  0.146118
    y        0.000000
    z        0.146118        Norm / debye:          0.371397


 Magnetic transition dipole moment / i:

    x        0.000000        Norm:                  0.000000
    y        0.000000
    z        0.000000        Norm / Bohr mag.:      0.000000


 Electric quadrupole transition moment:

   xx        0.061393
   yy       -0.181873        1/3*trace:             0.158420
   zz        0.595740
   xy        0.000000
   xz        0.000000        Anisotropy:            0.688980
   yz        0.000000




                         4 singlet a1 excitation


 Total energy:                           -436.1470096922321    

 Excitation energy:                      0.2835002166679148    

 Excitation energy / eV:                  7.714436710031467    

 Excitation energy / nm:                  160.7171705035125    

 Excitation energy / cm^(-1):             62221.10535656059    


 Oscillator strength:

    velocity representation:             0.3331120606000818E-01

    length representation:               0.2044927176791111    

    mixed representation:                0.8253422960432810E-01


 Rotatory strength:

    velocity representation:              0.000000000000000    

    velocity rep. / 10^(-40)erg*cm^3:     0.000000000000000    

    length representation:                0.000000000000000    

    length rep. / 10^(-40)erg*cm^3:       0.000000000000000    


 Dominant contributions:

    occ. orbital  energy / eV   virt. orbital  energy / eV   |coeff.|^2*100
       2 b2        -11.34           4 b2         -2.55           64.3
       3 b2         -8.24           5 b2         -0.17           28.3
 

 Change of electron number:

            -0.000000


 Electric transition dipole moment (velocity rep.):

    x        0.000000        Norm:                  0.419821
    y        0.000000
    z        0.419821        Norm / debye:          1.067086


 Electric transition dipole moment (length rep.):

    x        0.000000        Norm:                  1.040178
    y        0.000000
    z        1.040178        Norm / debye:          2.643890


 Magnetic transition dipole moment / i:

    x        0.000000        Norm:                  0.000000
    y        0.000000
    z        0.000000        Norm / Bohr mag.:      0.000000


 Electric quadrupole transition moment:

   xx       -0.599269
   yy       -0.186156        1/3*trace:             0.026847
   zz        0.865968
   xy        0.000000
   xz        0.000000        Anisotropy:            1.308539
   yz        0.000000




                         5 singlet a1 excitation


 Total energy:                           -436.1301118910485    

 Excitation energy:                      0.3003980178514969    

 Excitation energy / eV:                  8.174249472439815    

 Excitation energy / nm:                  151.6766088733796    

 Excitation energy / cm^(-1):             65929.74403096929    


 Oscillator strength:

    velocity representation:             0.4690456842416459E-01

    length representation:               0.4691317002521362    

    mixed representation:                0.1483388685895271    


 Rotatory strength:

    velocity representation:              0.000000000000000    

    velocity rep. / 10^(-40)erg*cm^3:     0.000000000000000    

    length representation:                0.000000000000000    

    length rep. / 10^(-40)erg*cm^3:       0.000000000000000    


 Dominant contributions:

    occ. orbital  energy / eV   virt. orbital  energy / eV   |coeff.|^2*100
       3 b2         -8.24           5 b2         -0.17           33.9
       2 b2        -11.34           4 b2         -2.55           30.2
       2 a2         -8.12           3 a2         -0.99           21.5
       3 b2         -8.24           4 b2         -2.55            3.7
       1 a2         -9.10           3 a2         -0.99            1.8
 

 Change of electron number:

            -0.000000


 Electric transition dipole moment (velocity rep.):

    x        0.000000        Norm:                  0.483955
    y        0.000000
    z       -0.483955        Norm / debye:          1.230099


 Electric transition dipole moment (length rep.):

    x        0.000000        Norm:                  1.530539
    y        0.000000
    z       -1.530539        Norm / debye:          3.890272


 Magnetic transition dipole moment / i:

    x        0.000000        Norm:                  0.000000
    y        0.000000
    z        0.000000        Norm / Bohr mag.:      0.000000


 Electric quadrupole transition moment:

   xx       -1.356249
   yy       -0.014334        1/3*trace:             1.400000
   zz        5.570585
   xy        0.000000
   xz        0.000000        Anisotropy:            6.362904
   yz        0.000000




                         6 singlet a1 excitation


 Total energy:                           -436.0870094438183    

 Excitation energy:                      0.3435004650816869    

 Excitation energy / eV:                  9.347127239917032    

 Excitation energy / nm:                  132.6442240745284    

 Excitation energy / cm^(-1):             75389.63771908147    


 Oscillator strength:

    velocity representation:             0.5021621400761583E-01

    length representation:               0.7316230190859645E-01

    mixed representation:                0.6061298383953622E-01


 Rotatory strength:

    velocity representation:              0.000000000000000    

    velocity rep. / 10^(-40)erg*cm^3:     0.000000000000000    

    length representation:                0.000000000000000    

    length rep. / 10^(-40)erg*cm^3:       0.000000000000000    


 Dominant contributions:

    occ. orbital  energy / eV   virt. orbital  energy / eV   |coeff.|^2*100
      16 a1         -9.03          17 a1          1.15           93.9
 

 Change of electron number:

            -0.000000


 Electric transition dipole moment (velocity rep.):

    x        0.000000        Norm:                  0.468278
    y        0.000000
    z       -0.468278        Norm / debye:          1.190253


 Electric transition dipole moment (length rep.):

    x        0.000000        Norm:                  0.565231
    y        0.000000
    z       -0.565231        Norm / debye:          1.436684


 Magnetic transition dipole moment / i:

    x        0.000000        Norm:                  0.000000
    y        0.000000
    z        0.000000        Norm / Bohr mag.:      0.000000


 Electric quadrupole transition moment:

   xx        1.743405
   yy        0.073877        1/3*trace:            -0.562477
   zz       -3.504713
   xy        0.000000
   xz        0.000000        Anisotropy:            4.644157
   yz        0.000000




                         7 singlet a1 excitation


 Total energy:                           -436.0659363565552    

 Excitation energy:                      0.3645735523447792    

 Excitation energy / eV:                  9.920555365958018    

 Excitation energy / nm:                  124.9771201639731    

 Excitation energy / cm^(-1):             80014.64576385754    


 Oscillator strength:

    velocity representation:             0.3367863095159178E-03

    length representation:               0.4296232314951467E-03

    mixed representation:                0.3803829946482273E-03


 Rotatory strength:

    velocity representation:              0.000000000000000    

    velocity rep. / 10^(-40)erg*cm^3:     0.000000000000000    

    length representation:                0.000000000000000    

    length rep. / 10^(-40)erg*cm^3:       0.000000000000000    


 Dominant contributions:

    occ. orbital  energy / eV   virt. orbital  energy / eV   |coeff.|^2*100
      11 b1         -8.62          12 b1          2.10           93.3
 

 Change of electron number:

            -0.000000


 Electric transition dipole moment (velocity rep.):

    x        0.000000        Norm:                  0.037225
    y        0.000000
    z        0.037225        Norm / debye:          0.094616


 Electric transition dipole moment (length rep.):

    x        0.000000        Norm:                  0.042043
    y        0.000000
    z        0.042043        Norm / debye:          0.106864


 Magnetic transition dipole moment / i:

    x        0.000000        Norm:                  0.000000
    y        0.000000
    z        0.000000        Norm / Bohr mag.:      0.000000


 Electric quadrupole transition moment:

   xx        0.088514
   yy        0.045440        1/3*trace:            -0.083593
   zz       -0.384732
   xy        0.000000
   xz        0.000000        Anisotropy:            0.453247
   yz        0.000000




                         8 singlet a1 excitation


 Total energy:                           -436.0598506648545    

 Excitation energy:                      0.3706592440454829    

 Excitation energy / eV:                  10.08615553379435    

 Excitation energy / nm:                  122.9251755944579    

 Excitation energy / cm^(-1):             81350.30070242354    


 Oscillator strength:

    velocity representation:             0.8505188105298698E-03

    length representation:               0.1906981850961628E-02

    mixed representation:                0.1273547775147023E-02


 Rotatory strength:

    velocity representation:              0.000000000000000    

    velocity rep. / 10^(-40)erg*cm^3:     0.000000000000000    

    length representation:                0.000000000000000    

    length rep. / 10^(-40)erg*cm^3:       0.000000000000000    


 Dominant contributions:

    occ. orbital  energy / eV   virt. orbital  energy / eV   |coeff.|^2*100
       2 b2        -11.34           5 b2         -0.17           85.0
       3 b2         -8.24           6 b2          3.61           12.7
 

 Change of electron number:

             0.000000


 Electric transition dipole moment (velocity rep.):

    x        0.000000        Norm:                  0.058668
    y        0.000000
    z       -0.058668        Norm / debye:          0.149120


 Electric transition dipole moment (length rep.):

    x        0.000000        Norm:                  0.087848
    y        0.000000
    z       -0.087848        Norm / debye:          0.223289


 Magnetic transition dipole moment / i:

    x        0.000000        Norm:                  0.000000
    y        0.000000
    z        0.000000        Norm / Bohr mag.:      0.000000


 Electric quadrupole transition moment:

   xx        1.270784
   yy       -0.009747        1/3*trace:             0.118029
   zz       -0.906949
   xy        0.000000
   xz        0.000000        Anisotropy:            1.895686
   yz        0.000000




                         9 singlet a1 excitation


 Total energy:                           -436.0515240039780    

 Excitation energy:                      0.3789859049219230    

 Excitation energy / eV:                  10.31273560167640    

 Excitation energy / nm:                  120.2243990297918    

 Excitation energy / cm^(-1):             83177.79152324436    


 Oscillator strength:

    velocity representation:             0.8313907433994256E-02

    length representation:               0.2520556483244337E-02

    mixed representation:                0.4577736698833552E-02


 Rotatory strength:

    velocity representation:              0.000000000000000    

    velocity rep. / 10^(-40)erg*cm^3:     0.000000000000000    

    length representation:                0.000000000000000    

    length rep. / 10^(-40)erg*cm^3:       0.000000000000000    


 Dominant contributions:

    occ. orbital  energy / eV   virt. orbital  energy / eV   |coeff.|^2*100
      16 a1         -9.03          18 a1          2.30           61.4
      16 a1         -9.03          19 a1          2.78           30.2
 

 Change of electron number:

            -0.000000


 Electric transition dipole moment (velocity rep.):

    x        0.000000        Norm:                  0.181400
    y        0.000000
    z        0.181400        Norm / debye:          0.461076


 Electric transition dipole moment (length rep.):

    x        0.000000        Norm:                  0.099881
    y        0.000000
    z        0.099881        Norm / debye:          0.253874


 Magnetic transition dipole moment / i:

    x        0.000000        Norm:                  0.000000
    y        0.000000
    z        0.000000        Norm / Bohr mag.:      0.000000


 Electric quadrupole transition moment:

   xx       -0.415504
   yy        0.160377        1/3*trace:             0.356448
   zz        1.324470
   xy        0.000000
   xz        0.000000        Anisotropy:            1.535295
   yz        0.000000




                        10 singlet a1 excitation


 Total energy:                           -436.0396511120497    

 Excitation energy:                      0.3908587968502804    

 Excitation energy / eV:                  10.63581356762253    

 Excitation energy / nm:                  116.5724118970084    

 Excitation energy / cm^(-1):             85783.59009456160    


 Oscillator strength:

    velocity representation:             0.4490346276657893E-02

    length representation:               0.6827838527123840E-02

    mixed representation:                0.5537089425672287E-02


 Rotatory strength:

    velocity representation:              0.000000000000000    

    velocity rep. / 10^(-40)erg*cm^3:     0.000000000000000    

    length representation:                0.000000000000000    

    length rep. / 10^(-40)erg*cm^3:       0.000000000000000    


 Dominant contributions:

    occ. orbital  energy / eV   virt. orbital  energy / eV   |coeff.|^2*100
      16 a1         -9.03          19 a1          2.78           54.3
      16 a1         -9.03          18 a1          2.30           27.6
       3 b2         -8.24           6 b2          3.61            6.4
      16 a1         -9.03          20 a1          3.29            5.7
 

 Change of electron number:

             0.000000


 Electric transition dipole moment (velocity rep.):

    x        0.000000        Norm:                  0.131273
    y        0.000000
    z       -0.131273        Norm / debye:          0.333665


 Electric transition dipole moment (length rep.):

    x        0.000000        Norm:                  0.161874
    y        0.000000
    z       -0.161874        Norm / debye:          0.411446


 Magnetic transition dipole moment / i:

    x        0.000000        Norm:                  0.000000
    y        0.000000
    z        0.000000        Norm / Bohr mag.:      0.000000


 Electric quadrupole transition moment:

   xx        0.529864
   yy        0.285302        1/3*trace:            -0.264025
   zz       -1.607242
   xy        0.000000
   xz        0.000000        Anisotropy:            2.025926
   yz        0.000000



 ==============================================================================

                              I R R E P   a2  

 ==============================================================================


 Excitation is electric dipole forbidden

 Excitation is magnetic dipole allowed

 Excitation is electric quadrupole allowed




                         1 singlet a2 excitation


 Total energy:                           -436.2864221592033    

 Excitation energy:                      0.1440877496966400    

 Excitation energy / eV:                  3.920828840239067    

 Excitation energy / nm:                  316.2194756731808    

 Excitation energy / cm^(-1):             31623.60565306409    


 Oscillator strength:

    velocity representation:              0.000000000000000    

    length representation:                0.000000000000000    

    mixed representation:                 0.000000000000000    


 Rotatory strength:

    velocity representation:              0.000000000000000    

    velocity rep. / 10^(-40)erg*cm^3:     0.000000000000000    

    length representation:                0.000000000000000    

    length rep. / 10^(-40)erg*cm^3:       0.000000000000000    


 Dominant contributions:

    occ. orbital  energy / eV   virt. orbital  energy / eV   |coeff.|^2*100
      11 b1         -8.62           4 b2         -2.55           95.3
 

 Change of electron number:

             0.000000


 Electric transition dipole moment (velocity rep.):

    x        0.000000        Norm:                  0.000000
    y        0.000000
    z        0.000000        Norm / debye:          0.000000


 Electric transition dipole moment (length rep.):

    x        0.000000        Norm:                  0.000000
    y        0.000000
    z        0.000000        Norm / debye:          0.000000


 Magnetic transition dipole moment / i:

    x        0.000000        Norm:                  0.002061
    y        0.000000
    z        0.002061        Norm / Bohr mag.:      0.564862


 Electric quadrupole transition moment:

   xx        0.000000
   yy        0.000000        1/3*trace:             0.000000
   zz        0.000000
   xy        0.211868
   xz        0.000000        Anisotropy:            0.366967
   yz        0.000000




                         2 singlet a2 excitation


 Total energy:                           -436.1860587733825    

 Excitation energy:                      0.2444511355175247    

 Excitation energy / eV:                  6.651856692773723    

 Excitation energy / nm:                  186.3904316236386    

 Excitation energy / cm^(-1):             53650.82269190440    


 Oscillator strength:

    velocity representation:              0.000000000000000    

    length representation:                0.000000000000000    

    mixed representation:                 0.000000000000000    


 Rotatory strength:

    velocity representation:              0.000000000000000    

    velocity rep. / 10^(-40)erg*cm^3:     0.000000000000000    

    length representation:                0.000000000000000    

    length rep. / 10^(-40)erg*cm^3:       0.000000000000000    


 Dominant contributions:

    occ. orbital  energy / eV   virt. orbital  energy / eV   |coeff.|^2*100
      10 b1        -10.58           4 b2         -2.55           97.0
 

 Change of electron number:

             0.000000


 Electric transition dipole moment (velocity rep.):

    x        0.000000        Norm:                  0.000000
    y        0.000000
    z        0.000000        Norm / debye:          0.000000


 Electric transition dipole moment (length rep.):

    x        0.000000        Norm:                  0.000000
    y        0.000000
    z        0.000000        Norm / debye:          0.000000


 Magnetic transition dipole moment / i:

    x        0.000000        Norm:                  0.000415
    y        0.000000
    z        0.000415        Norm / Bohr mag.:      0.113683


 Electric quadrupole transition moment:

   xx        0.000000
   yy        0.000000        1/3*trace:             0.000000
   zz        0.000000
   xy        0.123613
   xz        0.000000        Anisotropy:            0.214104
   yz        0.000000




                         3 singlet a2 excitation


 Total energy:                           -436.1768307607357    

 Excitation energy:                      0.2536791481642957    

 Excitation energy / eV:                  6.902963800766779    

 Excitation energy / nm:                  179.6101610625514    

 Excitation energy / cm^(-1):             55676.13735964939    


 Oscillator strength:

    velocity representation:              0.000000000000000    

    length representation:                0.000000000000000    

    mixed representation:                 0.000000000000000    


 Rotatory strength:

    velocity representation:              0.000000000000000    

    velocity rep. / 10^(-40)erg*cm^3:     0.000000000000000    

    length representation:                0.000000000000000    

    length rep. / 10^(-40)erg*cm^3:       0.000000000000000    


 Dominant contributions:

    occ. orbital  energy / eV   virt. orbital  energy / eV   |coeff.|^2*100
      16 a1         -9.03           3 a2         -0.99           97.8
 

 Change of electron number:

             0.000000


 Electric transition dipole moment (velocity rep.):

    x        0.000000        Norm:                  0.000000
    y        0.000000
    z        0.000000        Norm / debye:          0.000000


 Electric transition dipole moment (length rep.):

    x        0.000000        Norm:                  0.000000
    y        0.000000
    z        0.000000        Norm / debye:          0.000000


 Magnetic transition dipole moment / i:

    x        0.000000        Norm:                  0.000631
    y        0.000000
    z       -0.000631        Norm / Bohr mag.:      0.172881


 Electric quadrupole transition moment:

   xx        0.000000
   yy        0.000000        1/3*trace:             0.000000
   zz        0.000000
   xy       -0.068733
   xz        0.000000        Anisotropy:            0.119049
   yz        0.000000




                         4 singlet a2 excitation


 Total energy:                           -436.1703267241969    

 Excitation energy:                      0.2601831847031112    

 Excitation energy / eV:                  7.079947715728644    

 Excitation energy / nm:                  175.1202819351729    

 Excitation energy / cm^(-1):             57103.60837706523    


 Oscillator strength:

    velocity representation:              0.000000000000000    

    length representation:                0.000000000000000    

    mixed representation:                 0.000000000000000    


 Rotatory strength:

    velocity representation:              0.000000000000000    

    velocity rep. / 10^(-40)erg*cm^3:     0.000000000000000    

    length representation:                0.000000000000000    

    length rep. / 10^(-40)erg*cm^3:       0.000000000000000    


 Dominant contributions:

    occ. orbital  energy / eV   virt. orbital  energy / eV   |coeff.|^2*100
      11 b1         -8.62           5 b2         -0.17           93.6
 

 Change of electron number:

             0.000000


 Electric transition dipole moment (velocity rep.):

    x        0.000000        Norm:                  0.000000
    y        0.000000
    z        0.000000        Norm / debye:          0.000000


 Electric transition dipole moment (length rep.):

    x        0.000000        Norm:                  0.000000
    y        0.000000
    z        0.000000        Norm / debye:          0.000000


 Magnetic transition dipole moment / i:

    x        0.000000        Norm:                  0.000729
    y        0.000000
    z        0.000729        Norm / Bohr mag.:      0.199764


 Electric quadrupole transition moment:

   xx        0.000000
   yy        0.000000        1/3*trace:             0.000000
   zz        0.000000
   xy        0.158505
   xz        0.000000        Anisotropy:            0.274539
   yz        0.000000




                         5 singlet a2 excitation


 Total energy:                           -436.1364311204072    

 Excitation energy:                      0.2940787884927351    

 Excitation energy / eV:                  8.002294418869450    

 Excitation energy / nm:                  154.9358690354017    

 Excitation energy / cm^(-1):             64542.83350114644    


 Oscillator strength:

    velocity representation:              0.000000000000000    

    length representation:                0.000000000000000    

    mixed representation:                 0.000000000000000    


 Rotatory strength:

    velocity representation:              0.000000000000000    

    velocity rep. / 10^(-40)erg*cm^3:     0.000000000000000    

    length representation:                0.000000000000000    

    length rep. / 10^(-40)erg*cm^3:       0.000000000000000    


 Dominant contributions:

    occ. orbital  energy / eV   virt. orbital  energy / eV   |coeff.|^2*100
       2 a2         -8.12          17 a1          1.15           98.4
 

 Change of electron number:

             0.000000


 Electric transition dipole moment (velocity rep.):

    x        0.000000        Norm:                  0.000000
    y        0.000000
    z        0.000000        Norm / debye:          0.000000


 Electric transition dipole moment (length rep.):

    x        0.000000        Norm:                  0.000000
    y        0.000000
    z        0.000000        Norm / debye:          0.000000


 Magnetic transition dipole moment / i:

    x        0.000000        Norm:                  0.001363
    y        0.000000
    z        0.001363        Norm / Bohr mag.:      0.373629


 Electric quadrupole transition moment:

   xx        0.000000
   yy        0.000000        1/3*trace:             0.000000
   zz        0.000000
   xy        0.798791
   xz        0.000000        Anisotropy:            1.383546
   yz        0.000000




                         6 singlet a2 excitation


 Total energy:                           -436.1223302181322    

 Excitation energy:                      0.3081796907677367    

 Excitation energy / eV:                  8.385999657028973    

 Excitation energy / nm:                  147.8467076999547    

 Excitation energy / cm^(-1):             67637.62382048920    


 Oscillator strength:

    velocity representation:              0.000000000000000    

    length representation:                0.000000000000000    

    mixed representation:                 0.000000000000000    


 Rotatory strength:

    velocity representation:              0.000000000000000    

    velocity rep. / 10^(-40)erg*cm^3:     0.000000000000000    

    length representation:                0.000000000000000    

    length rep. / 10^(-40)erg*cm^3:       0.000000000000000    


 Dominant contributions:

    occ. orbital  energy / eV   virt. orbital  energy / eV   |coeff.|^2*100
      15 a1        -11.10           3 a2         -0.99           94.4
 

 Change of electron number:

             0.000000


 Electric transition dipole moment (velocity rep.):

    x        0.000000        Norm:                  0.000000
    y        0.000000
    z        0.000000        Norm / debye:          0.000000


 Electric transition dipole moment (length rep.):

    x        0.000000        Norm:                  0.000000
    y        0.000000
    z        0.000000        Norm / debye:          0.000000


 Magnetic transition dipole moment / i:

    x        0.000000        Norm:                  0.001338
    y        0.000000
    z        0.001338        Norm / Bohr mag.:      0.366757


 Electric quadrupole transition moment:

   xx        0.000000
   yy        0.000000        1/3*trace:             0.000000
   zz        0.000000
   xy        0.197021
   xz        0.000000        Anisotropy:            0.341251
   yz        0.000000




                         7 singlet a2 excitation


 Total energy:                           -436.1082820562042    

 Excitation energy:                      0.3222278526957577    

 Excitation energy / eV:                  8.768269756712664    

 Excitation energy / nm:                  141.4010374299337    

 Excitation energy / cm^(-1):             70720.83897165541    


 Oscillator strength:

    velocity representation:              0.000000000000000    

    length representation:                0.000000000000000    

    mixed representation:                 0.000000000000000    


 Rotatory strength:

    velocity representation:              0.000000000000000    

    velocity rep. / 10^(-40)erg*cm^3:     0.000000000000000    

    length representation:                0.000000000000000    

    length rep. / 10^(-40)erg*cm^3:       0.000000000000000    


 Dominant contributions:

    occ. orbital  energy / eV   virt. orbital  energy / eV   |coeff.|^2*100
      10 b1        -10.58           5 b2         -0.17           47.0
       9 b1        -12.74           4 b2         -2.55           44.6
 

 Change of electron number:

             0.000000


 Electric transition dipole moment (velocity rep.):

    x        0.000000        Norm:                  0.000000
    y        0.000000
    z        0.000000        Norm / debye:          0.000000


 Electric transition dipole moment (length rep.):

    x        0.000000        Norm:                  0.000000
    y        0.000000
    z        0.000000        Norm / debye:          0.000000


 Magnetic transition dipole moment / i:

    x        0.000000        Norm:                  0.002595
    y        0.000000
    z        0.002595        Norm / Bohr mag.:      0.711207


 Electric quadrupole transition moment:

   xx        0.000000
   yy        0.000000        1/3*trace:             0.000000
   zz        0.000000
   xy        0.455534
   xz        0.000000        Anisotropy:            0.789008
   yz        0.000000




                         8 singlet a2 excitation


 Total energy:                           -436.1009790807400    

 Excitation energy:                      0.3295308281599519    

 Excitation energy / eV:                  8.966993915288644    

 Excitation energy / nm:                  138.2673448624475    

 Excitation energy / cm^(-1):             72323.65681467060    


 Oscillator strength:

    velocity representation:              0.000000000000000    

    length representation:                0.000000000000000    

    mixed representation:                 0.000000000000000    


 Rotatory strength:

    velocity representation:              0.000000000000000    

    velocity rep. / 10^(-40)erg*cm^3:     0.000000000000000    

    length representation:                0.000000000000000    

    length rep. / 10^(-40)erg*cm^3:       0.000000000000000    


 Dominant contributions:

    occ. orbital  energy / eV   virt. orbital  energy / eV   |coeff.|^2*100
       9 b1        -12.74           4 b2         -2.55           50.6
      10 b1        -10.58           5 b2         -0.17           42.5
 

 Change of electron number:

             0.000000


 Electric transition dipole moment (velocity rep.):

    x        0.000000        Norm:                  0.000000
    y        0.000000
    z        0.000000        Norm / debye:          0.000000


 Electric transition dipole moment (length rep.):

    x        0.000000        Norm:                  0.000000
    y        0.000000
    z        0.000000        Norm / debye:          0.000000


 Magnetic transition dipole moment / i:

    x        0.000000        Norm:                  0.001038
    y        0.000000
    z       -0.001038        Norm / Bohr mag.:      0.284399


 Electric quadrupole transition moment:

   xx        0.000000
   yy        0.000000        1/3*trace:             0.000000
   zz        0.000000
   xy       -0.261419
   xz        0.000000        Anisotropy:            0.452791
   yz        0.000000




                         9 singlet a2 excitation


 Total energy:                           -436.0928624345616    

 Excitation energy:                      0.3376474743383973    

 Excitation energy / eV:                  9.187859190022037    

 Excitation energy / nm:                  134.9435613261406    

 Excitation energy / cm^(-1):             74105.05473720747    


 Oscillator strength:

    velocity representation:              0.000000000000000    

    length representation:                0.000000000000000    

    mixed representation:                 0.000000000000000    


 Rotatory strength:

    velocity representation:              0.000000000000000    

    velocity rep. / 10^(-40)erg*cm^3:     0.000000000000000    

    length representation:                0.000000000000000    

    length rep. / 10^(-40)erg*cm^3:       0.000000000000000    


 Dominant contributions:

    occ. orbital  energy / eV   virt. orbital  energy / eV   |coeff.|^2*100
       3 b2         -8.24          12 b1          2.10           60.8
       2 a2         -8.12          18 a1          2.30           34.3
 

 Change of electron number:

             0.000000


 Electric transition dipole moment (velocity rep.):

    x        0.000000        Norm:                  0.000000
    y        0.000000
    z        0.000000        Norm / debye:          0.000000


 Electric transition dipole moment (length rep.):

    x        0.000000        Norm:                  0.000000
    y        0.000000
    z        0.000000        Norm / debye:          0.000000


 Magnetic transition dipole moment / i:

    x        0.000000        Norm:                  0.000174
    y        0.000000
    z        0.000174        Norm / Bohr mag.:      0.047658


 Electric quadrupole transition moment:

   xx        0.000000
   yy        0.000000        1/3*trace:             0.000000
   zz        0.000000
   xy        0.080878
   xz        0.000000        Anisotropy:            0.140085
   yz        0.000000




                        10 singlet a2 excitation


 Total energy:                           -436.0897915850225    

 Excitation energy:                      0.3407183238774836    

 Excitation energy / eV:                  9.271421293408576    

 Excitation energy / nm:                  133.7273327171679    

 Excitation energy / cm^(-1):             74779.02830573371    


 Oscillator strength:

    velocity representation:              0.000000000000000    

    length representation:                0.000000000000000    

    mixed representation:                 0.000000000000000    


 Rotatory strength:

    velocity representation:              0.000000000000000    

    velocity rep. / 10^(-40)erg*cm^3:     0.000000000000000    

    length representation:                0.000000000000000    

    length rep. / 10^(-40)erg*cm^3:       0.000000000000000    


 Dominant contributions:

    occ. orbital  energy / eV   virt. orbital  energy / eV   |coeff.|^2*100
       2 a2         -8.12          18 a1          2.30           60.9
       3 b2         -8.24          12 b1          2.10           37.0
 

 Change of electron number:

             0.000000


 Electric transition dipole moment (velocity rep.):

    x        0.000000        Norm:                  0.000000
    y        0.000000
    z        0.000000        Norm / debye:          0.000000


 Electric transition dipole moment (length rep.):

    x        0.000000        Norm:                  0.000000
    y        0.000000
    z        0.000000        Norm / debye:          0.000000


 Magnetic transition dipole moment / i:

    x        0.000000        Norm:                  0.000831
    y        0.000000
    z       -0.000831        Norm / Bohr mag.:      0.227634


 Electric quadrupole transition moment:

   xx        0.000000
   yy        0.000000        1/3*trace:             0.000000
   zz        0.000000
   xy       -0.762105
   xz        0.000000        Anisotropy:            1.320004
   yz        0.000000



 ==============================================================================

                              I R R E P   b1  

 ==============================================================================


 Excitation is electric dipole allowed

 Excitation is magnetic dipole allowed

 Excitation is electric quadrupole allowed




                         1 singlet b1 excitation


 Total energy:                           -436.2595215594363    

 Excitation energy:                      0.1709883494636480    

 Excitation energy / eV:                  4.652831717709734    

 Excitation energy / nm:                  266.4705098500686    

 Excitation energy / cm^(-1):             37527.60485253670    


 Oscillator strength:

    velocity representation:             0.2148563303358992E-02

    length representation:               0.1789925380698020E-01

    mixed representation:                0.6201425633448037E-02


 Rotatory strength:

    velocity representation:              0.000000000000000    

    velocity rep. / 10^(-40)erg*cm^3:     0.000000000000000    

    length representation:                0.000000000000000    

    length rep. / 10^(-40)erg*cm^3:       0.000000000000000    


 Dominant contributions:

    occ. orbital  energy / eV   virt. orbital  energy / eV   |coeff.|^2*100
       2 a2         -8.12           4 b2         -2.55           89.2
       3 b2         -8.24           3 a2         -0.99            9.5
 

 Change of electron number:

             0.000000


 Electric transition dipole moment (velocity rep.):

    x       -0.137289        Norm:                  0.137289
    y        0.000000
    z        0.000000        Norm / debye:          0.348957


 Electric transition dipole moment (length rep.):

    x        0.396260        Norm:                  0.396260
    y        0.000000
    z        0.000000        Norm / debye:          1.007199


 Magnetic transition dipole moment / i:

    x        0.000000        Norm:                  0.000915
    y       -0.000915
    z        0.000000        Norm / Bohr mag.:      0.250809


 Electric quadrupole transition moment:

   xx        0.000000
   yy        0.000000        1/3*trace:             0.000000
   zz        0.000000
   xy        0.000000
   xz       -0.282551        Anisotropy:            0.489393
   yz        0.000000




                         2 singlet b1 excitation


 Total energy:                           -436.2024488876096    

 Excitation energy:                      0.2280610212903756    

 Excitation energy / eV:                  6.205858801267216    

 Excitation energy / nm:                  199.7857959339184    

 Excitation energy / cm^(-1):             50053.60842477003    


 Oscillator strength:

    velocity representation:             0.1433376160565238E-03

    length representation:               0.1365203925834383E-01

    mixed representation:                0.1398874819846679E-02


 Rotatory strength:

    velocity representation:              0.000000000000000    

    velocity rep. / 10^(-40)erg*cm^3:     0.000000000000000    

    length representation:                0.000000000000000    

    length rep. / 10^(-40)erg*cm^3:       0.000000000000000    


 Dominant contributions:

    occ. orbital  energy / eV   virt. orbital  energy / eV   |coeff.|^2*100
       3 b2         -8.24           3 a2         -0.99           52.5
       2 a2         -8.12           5 b2         -0.17           39.3
 

 Change of electron number:

             0.000000


 Electric transition dipole moment (velocity rep.):

    x       -0.030704        Norm:                  0.030704
    y        0.000000
    z        0.000000        Norm / debye:          0.078043


 Electric transition dipole moment (length rep.):

    x       -0.299653        Norm:                  0.299653
    y        0.000000
    z        0.000000        Norm / debye:          0.761648


 Magnetic transition dipole moment / i:

    x        0.000000        Norm:                  0.000876
    y        0.000876
    z        0.000000        Norm / Bohr mag.:      0.239973


 Electric quadrupole transition moment:

   xx        0.000000
   yy        0.000000        1/3*trace:             0.000000
   zz        0.000000
   xy        0.000000
   xz        1.479283        Anisotropy:            2.562194
   yz        0.000000




                         3 singlet b1 excitation


 Total energy:                           -436.1898826385228    

 Excitation energy:                      0.2406272703771727    

 Excitation energy / eV:                  6.547803983538952    

 Excitation energy / nm:                  189.3524062695863    

 Excitation energy / cm^(-1):             52811.58130237903    


 Oscillator strength:

    velocity representation:             0.3692821916355953E-01

    length representation:               0.4497089489419804E-01

    mixed representation:                0.4075162650293047E-01


 Rotatory strength:

    velocity representation:              0.000000000000000    

    velocity rep. / 10^(-40)erg*cm^3:     0.000000000000000    

    length representation:                0.000000000000000    

    length rep. / 10^(-40)erg*cm^3:       0.000000000000000    


 Dominant contributions:

    occ. orbital  energy / eV   virt. orbital  energy / eV   |coeff.|^2*100
       1 a2         -9.10           4 b2         -2.55           76.6
       1 a2         -9.10           5 b2         -0.17           12.3
       2 a2         -8.12           5 b2         -0.17            6.0
 

 Change of electron number:

             0.000000


 Electric transition dipole moment (velocity rep.):

    x       -0.479791        Norm:                  0.479791
    y        0.000000
    z        0.000000        Norm / debye:          1.219517


 Electric transition dipole moment (length rep.):

    x        0.529467        Norm:                  0.529467
    y        0.000000
    z        0.000000        Norm / debye:          1.345781


 Magnetic transition dipole moment / i:

    x        0.000000        Norm:                  0.000670
    y       -0.000670
    z        0.000000        Norm / Bohr mag.:      0.183625


 Electric quadrupole transition moment:

   xx        0.000000
   yy        0.000000        1/3*trace:             0.000000
   zz        0.000000
   xy        0.000000
   xz        4.383789        Anisotropy:            7.592946
   yz        0.000000




                         4 singlet b1 excitation


 Total energy:                           -436.1358328630533    

 Excitation energy:                      0.2946770458466622    

 Excitation energy / eV:                  8.018573836738778    

 Excitation energy / nm:                  154.6213161228353    

 Excitation energy / cm^(-1):             64674.13581296316    


 Oscillator strength:

    velocity representation:             0.2218671571342370E-01

    length representation:               0.5803822944346377    

    mixed representation:                0.1134758871819290    


 Rotatory strength:

    velocity representation:              0.000000000000000    

    velocity rep. / 10^(-40)erg*cm^3:     0.000000000000000    

    length representation:                0.000000000000000    

    length rep. / 10^(-40)erg*cm^3:       0.000000000000000    


 Dominant contributions:

    occ. orbital  energy / eV   virt. orbital  energy / eV   |coeff.|^2*100
       2 a2         -8.12           5 b2         -0.17           44.7
       3 b2         -8.24           3 a2         -0.99           29.8
       1 a2         -9.10           5 b2         -0.17           13.5
       2 a2         -8.12           4 b2         -2.55            3.4
 

 Change of electron number:

             0.000000


 Electric transition dipole moment (velocity rep.):

    x        0.336062        Norm:                  0.336062
    y        0.000000
    z        0.000000        Norm / debye:          0.854190


 Electric transition dipole moment (length rep.):

    x        1.718817        Norm:                  1.718817
    y        0.000000
    z        0.000000        Norm / debye:          4.368829


 Magnetic transition dipole moment / i:

    x        0.000000        Norm:                  0.002077
    y       -0.002077
    z        0.000000        Norm / Bohr mag.:      0.569150


 Electric quadrupole transition moment:

   xx        0.000000
   yy        0.000000        1/3*trace:             0.000000
   zz        0.000000
   xy        0.000000
   xz       -3.472826        Anisotropy:            6.015112
   yz        0.000000




                         5 singlet b1 excitation


 Total energy:                           -436.1207633631604    

 Excitation energy:                      0.3097465457395142    

 Excitation energy / eV:                  8.428635968406947    

 Excitation energy / nm:                  147.0988241409386    

 Excitation energy / cm^(-1):             67981.50873678054    


 Oscillator strength:

    velocity representation:             0.3319289548965279E-02

    length representation:               0.3675702118541773    

    mixed representation:                0.3492952852127443E-01


 Rotatory strength:

    velocity representation:              0.000000000000000    

    velocity rep. / 10^(-40)erg*cm^3:     0.000000000000000    

    length representation:                0.000000000000000    

    length rep. / 10^(-40)erg*cm^3:       0.000000000000000    


 Dominant contributions:

    occ. orbital  energy / eV   virt. orbital  energy / eV   |coeff.|^2*100
       1 a2         -9.10           5 b2         -0.17           66.7
       1 a2         -9.10           4 b2         -2.55           10.1
       2 a2         -8.12           5 b2         -0.17            5.9
       3 b2         -8.24           3 a2         -0.99            3.4
      11 b1         -8.62          17 a1          1.15            2.2
      11 b1         -8.62          19 a1          2.78            1.5
      16 a1         -9.03          17 b1          6.95            1.5
 

 Change of electron number:

             0.000000


 Electric transition dipole moment (velocity rep.):

    x        0.126784        Norm:                  0.126784
    y        0.000000
    z        0.000000        Norm / debye:          0.322256


 Electric transition dipole moment (length rep.):

    x       -1.334174        Norm:                  1.334174
    y        0.000000
    z        0.000000        Norm / debye:          3.391158


 Magnetic transition dipole moment / i:

    x        0.000000        Norm:                  0.000180
    y       -0.000180
    z        0.000000        Norm / Bohr mag.:      0.049407


 Electric quadrupole transition moment:

   xx        0.000000
   yy        0.000000        1/3*trace:             0.000000
   zz        0.000000
   xy        0.000000
   xz       -4.143954        Anisotropy:            7.177539
   yz        0.000000




                         6 singlet b1 excitation


 Total energy:                           -436.1047902036879    

 Excitation energy:                      0.3257197052120689    

 Excitation energy / eV:                  8.863287938901221    

 Excitation energy / nm:                  139.8851587144066    

 Excitation energy / cm^(-1):             71487.21201313171    


 Oscillator strength:

    velocity representation:             0.5754751934418527E-02

    length representation:               0.5330031126704807E-03

    mixed representation:                0.1751371089658484E-02


 Rotatory strength:

    velocity representation:              0.000000000000000    

    velocity rep. / 10^(-40)erg*cm^3:     0.000000000000000    

    length representation:                0.000000000000000    

    length rep. / 10^(-40)erg*cm^3:       0.000000000000000    


 Dominant contributions:

    occ. orbital  energy / eV   virt. orbital  energy / eV   |coeff.|^2*100
      11 b1         -8.62          17 a1          1.15           89.4
      11 b1         -8.62          18 a1          2.30            6.2
 

 Change of electron number:

             0.000000


 Electric transition dipole moment (velocity rep.):

    x        0.162793        Norm:                  0.162793
    y        0.000000
    z        0.000000        Norm / debye:          0.413783


 Electric transition dipole moment (length rep.):

    x       -0.049544        Norm:                  0.049544
    y        0.000000
    z        0.000000        Norm / debye:          0.125928


 Magnetic transition dipole moment / i:

    x        0.000000        Norm:                  0.001983
    y        0.001983
    z        0.000000        Norm / Bohr mag.:      0.543612


 Electric quadrupole transition moment:

   xx        0.000000
   yy        0.000000        1/3*trace:             0.000000
   zz        0.000000
   xy        0.000000
   xz       -0.260299        Anisotropy:            0.450851
   yz        0.000000




                         7 singlet b1 excitation


 Total energy:                           -436.0859570631666    

 Excitation energy:                      0.3445528457334027    

 Excitation energy / eV:                  9.375763986752515    

 Excitation energy / nm:                  132.2390838566882    

 Excitation energy / cm^(-1):             75620.60857397264    


 Oscillator strength:

    velocity representation:             0.3906182859099674E-02

    length representation:               0.4199110519336447E-02

    mixed representation:                0.4049999201740311E-02


 Rotatory strength:

    velocity representation:              0.000000000000000    

    velocity rep. / 10^(-40)erg*cm^3:     0.000000000000000    

    length representation:                0.000000000000000    

    length rep. / 10^(-40)erg*cm^3:       0.000000000000000    


 Dominant contributions:

    occ. orbital  energy / eV   virt. orbital  energy / eV   |coeff.|^2*100
       2 b2        -11.34           3 a2         -0.99           87.1
       2 a2         -8.12           6 b2          3.61            9.0
 

 Change of electron number:

             0.000000


 Electric transition dipole moment (velocity rep.):

    x       -0.130405        Norm:                  0.130405
    y        0.000000
    z        0.000000        Norm / debye:          0.331459


 Electric transition dipole moment (length rep.):

    x       -0.135206        Norm:                  0.135206
    y        0.000000
    z        0.000000        Norm / debye:          0.343662


 Magnetic transition dipole moment / i:

    x        0.000000        Norm:                  0.000811
    y       -0.000811
    z        0.000000        Norm / Bohr mag.:      0.222240


 Electric quadrupole transition moment:

   xx        0.000000
   yy        0.000000        1/3*trace:             0.000000
   zz        0.000000
   xy        0.000000
   xz        2.314115        Anisotropy:            4.008164
   yz        0.000000




                         8 singlet b1 excitation


 Total energy:                           -436.0645600399365    

 Excitation energy:                      0.3659498689634918    

 Excitation energy / eV:                  9.958006862725163    

 Excitation energy / nm:                  124.5070883316685    

 Excitation energy / cm^(-1):             80316.71234547575    


 Oscillator strength:

    velocity representation:             0.1915444923766246E-01

    length representation:               0.8551724330962888E-01

    mixed representation:                0.4047265368022112E-01


 Rotatory strength:

    velocity representation:              0.000000000000000    

    velocity rep. / 10^(-40)erg*cm^3:     0.000000000000000    

    length representation:                0.000000000000000    

    length rep. / 10^(-40)erg*cm^3:       0.000000000000000    


 Dominant contributions:

    occ. orbital  energy / eV   virt. orbital  energy / eV   |coeff.|^2*100
      11 b1         -8.62          18 a1          2.30           68.4
      11 b1         -8.62          19 a1          2.78           17.9
      11 b1         -8.62          17 a1          1.15            5.9
 

 Change of electron number:

             0.000000


 Electric transition dipole moment (velocity rep.):

    x        0.280201        Norm:                  0.280201
    y        0.000000
    z        0.000000        Norm / debye:          0.712205


 Electric transition dipole moment (length rep.):

    x        0.592054        Norm:                  0.592054
    y        0.000000
    z        0.000000        Norm / debye:          1.504864


 Magnetic transition dipole moment / i:

    x        0.000000        Norm:                  0.004035
    y        0.004035
    z        0.000000        Norm / Bohr mag.:      1.105962


 Electric quadrupole transition moment:

   xx        0.000000
   yy        0.000000        1/3*trace:             0.000000
   zz        0.000000
   xy        0.000000
   xz        1.238139        Anisotropy:            2.144520
   yz        0.000000




                         9 singlet b1 excitation


 Total energy:                           -436.0543194770815    

 Excitation energy:                      0.3761904318184012    

 Excitation energy / eV:                  10.23666687557389    

 Excitation energy / nm:                  121.1177871796454    

 Excitation energy / cm^(-1):             82564.25609621713    


 Oscillator strength:

    velocity representation:             0.5360787798528859E-03

    length representation:               0.1800186360746895E-01

    mixed representation:                0.3106512043718811E-02


 Rotatory strength:

    velocity representation:              0.000000000000000    

    velocity rep. / 10^(-40)erg*cm^3:     0.000000000000000    

    length representation:                0.000000000000000    

    length rep. / 10^(-40)erg*cm^3:       0.000000000000000    


 Dominant contributions:

    occ. orbital  energy / eV   virt. orbital  energy / eV   |coeff.|^2*100
      11 b1         -8.62          19 a1          2.78           68.3
      11 b1         -8.62          18 a1          2.30           14.3
      11 b1         -8.62          20 a1          3.29            7.9
 

 Change of electron number:

             0.000000


 Electric transition dipole moment (velocity rep.):

    x        0.046233        Norm:                  0.046233
    y        0.000000
    z        0.000000        Norm / debye:          0.117515


 Electric transition dipole moment (length rep.):

    x        0.267917        Norm:                  0.267917
    y        0.000000
    z        0.000000        Norm / debye:          0.680983


 Magnetic transition dipole moment / i:

    x        0.000000        Norm:                  0.003261
    y        0.003261
    z        0.000000        Norm / Bohr mag.:      0.893865


 Electric quadrupole transition moment:

   xx        0.000000
   yy        0.000000        1/3*trace:             0.000000
   zz        0.000000
   xy        0.000000
   xz        0.807566        Anisotropy:            1.398745
   yz        0.000000




                        10 singlet b1 excitation


 Total energy:                           -436.0515661430201    

 Excitation energy:                      0.3789437658799223    

 Excitation energy / eV:                  10.31158893951029    

 Excitation energy / nm:                  120.2377681400830    

 Excitation energy / cm^(-1):             83168.54307256320    


 Oscillator strength:

    velocity representation:             0.1460230860669113E-01

    length representation:               0.3133537007423149E-01

    mixed representation:                0.2139085655435055E-01


 Rotatory strength:

    velocity representation:              0.000000000000000    

    velocity rep. / 10^(-40)erg*cm^3:     0.000000000000000    

    length representation:                0.000000000000000    

    length rep. / 10^(-40)erg*cm^3:       0.000000000000000    


 Dominant contributions:

    occ. orbital  energy / eV   virt. orbital  energy / eV   |coeff.|^2*100
      16 a1         -9.03          12 b1          2.10           89.7
      11 b1         -8.62          18 a1          2.30            4.1
 

 Change of electron number:

             0.000000


 Electric transition dipole moment (velocity rep.):

    x        0.240419        Norm:                  0.240419
    y        0.000000
    z        0.000000        Norm / debye:          0.611089


 Electric transition dipole moment (length rep.):

    x        0.352189        Norm:                  0.352189
    y        0.000000
    z        0.000000        Norm / debye:          0.895182


 Magnetic transition dipole moment / i:

    x        0.000000        Norm:                  0.001335
    y        0.001335
    z        0.000000        Norm / Bohr mag.:      0.365827


 Electric quadrupole transition moment:

   xx        0.000000
   yy        0.000000        1/3*trace:             0.000000
   zz        0.000000
   xy        0.000000
   xz       -1.426680        Anisotropy:            2.471083
   yz        0.000000



 ==============================================================================

                              I R R E P   b2  

 ==============================================================================


 Excitation is electric dipole allowed

 Excitation is magnetic dipole allowed

 Excitation is electric quadrupole allowed




                         1 singlet b2 excitation


 Total energy:                           -436.2684379674736    

 Excitation energy:                      0.1620719414263478    

 Excitation energy / eV:                  4.410203806193386    

 Excitation energy / nm:                  281.1304181279637    

 Excitation energy / cm^(-1):             35570.67949137973    


 Oscillator strength:

    velocity representation:             0.2577661948675797E-02

    length representation:               0.1235808053008537E-03

    mixed representation:                0.5644019307290885E-03


 Rotatory strength:

    velocity representation:              0.000000000000000    

    velocity rep. / 10^(-40)erg*cm^3:     0.000000000000000    

    length representation:                0.000000000000000    

    length rep. / 10^(-40)erg*cm^3:       0.000000000000000    


 Dominant contributions:

    occ. orbital  energy / eV   virt. orbital  energy / eV   |coeff.|^2*100
      16 a1         -9.03           4 b2         -2.55           95.5
 

 Change of electron number:

             0.000000


 Electric transition dipole moment (velocity rep.):

    x        0.000000        Norm:                  0.154456
    y        0.154456
    z        0.000000        Norm / debye:          0.392591


 Electric transition dipole moment (length rep.):

    x        0.000000        Norm:                  0.033820
    y        0.033820
    z        0.000000        Norm / debye:          0.085961


 Magnetic transition dipole moment / i:

    x       -0.003808        Norm:                  0.003808
    y        0.000000
    z        0.000000        Norm / Bohr mag.:      1.043689


 Electric quadrupole transition moment:

   xx        0.000000
   yy        0.000000        1/3*trace:             0.000000
   zz        0.000000
   xy        0.000000
   xz        0.000000        Anisotropy:            1.010597
   yz        0.583468




                         2 singlet b2 excitation


 Total energy:                           -436.1880050943892    

 Excitation energy:                      0.2425048145108094    

 Excitation energy / eV:                  6.598894580785999    

 Excitation energy / nm:                  187.8863838308210    

 Excitation energy / cm^(-1):             53223.65460773190    


 Oscillator strength:

    velocity representation:             0.4839705604270176E-03

    length representation:               0.4638996783528951E-05

    mixed representation:                0.4738288586761721E-04


 Rotatory strength:

    velocity representation:              0.000000000000000    

    velocity rep. / 10^(-40)erg*cm^3:     0.000000000000000    

    length representation:                0.000000000000000    

    length rep. / 10^(-40)erg*cm^3:       0.000000000000000    


 Dominant contributions:

    occ. orbital  energy / eV   virt. orbital  energy / eV   |coeff.|^2*100
      11 b1         -8.62           3 a2         -0.99           99.6
 

 Change of electron number:

             0.000000


 Electric transition dipole moment (velocity rep.):

    x        0.000000        Norm:                  0.054714
    y       -0.054714
    z        0.000000        Norm / debye:          0.139069


 Electric transition dipole moment (length rep.):

    x        0.000000        Norm:                  0.005357
    y       -0.005357
    z        0.000000        Norm / debye:          0.013615


 Magnetic transition dipole moment / i:

    x       -0.000185        Norm:                  0.000185
    y        0.000000
    z        0.000000        Norm / Bohr mag.:      0.050785


 Electric quadrupole transition moment:

   xx        0.000000
   yy        0.000000        1/3*trace:             0.000000
   zz        0.000000
   xy        0.000000
   xz        0.000000        Anisotropy:            0.140447
   yz       -0.081087




                         3 singlet b2 excitation


 Total energy:                           -436.1664525297203    

 Excitation energy:                      0.2640573791796361    

 Excitation energy / eV:                  7.185369956468986    

 Excitation energy / nm:                  172.5509538932583    

 Excitation energy / cm^(-1):             57953.89577906050    


 Oscillator strength:

    velocity representation:             0.2210227624674601E-02

    length representation:               0.1008332592241996E-02

    mixed representation:                0.1492864545172472E-02


 Rotatory strength:

    velocity representation:              0.000000000000000    

    velocity rep. / 10^(-40)erg*cm^3:     0.000000000000000    

    length representation:                0.000000000000000    

    length rep. / 10^(-40)erg*cm^3:       0.000000000000000    


 Dominant contributions:

    occ. orbital  energy / eV   virt. orbital  energy / eV   |coeff.|^2*100
      15 a1        -11.10           4 b2         -2.55           79.9
      16 a1         -9.03           5 b2         -0.17           16.3
 

 Change of electron number:

             0.000000


 Electric transition dipole moment (velocity rep.):

    x        0.000000        Norm:                  0.112051
    y        0.112051
    z        0.000000        Norm / debye:          0.284807


 Electric transition dipole moment (length rep.):

    x        0.000000        Norm:                  0.075683
    y        0.075683
    z        0.000000        Norm / debye:          0.192368


 Magnetic transition dipole moment / i:

    x       -0.000351        Norm:                  0.000351
    y        0.000000
    z        0.000000        Norm / Bohr mag.:      0.096199


 Electric quadrupole transition moment:

   xx        0.000000
   yy        0.000000        1/3*trace:             0.000000
   zz        0.000000
   xy        0.000000
   xz        0.000000        Anisotropy:            0.433513
   yz       -0.250289




                         4 singlet b2 excitation


 Total energy:                           -436.1575198538350    

 Excitation energy:                      0.2729900550650229    

 Excitation energy / eV:                  7.428440538844453    

 Excitation energy / nm:                  166.9048077562656    

 Excitation energy / cm^(-1):             59914.39152016857    


 Oscillator strength:

    velocity representation:             0.2187125412361543E-03

    length representation:               0.1715996182121039E-04

    mixed representation:                0.6126254040955461E-04


 Rotatory strength:

    velocity representation:              0.000000000000000    

    velocity rep. / 10^(-40)erg*cm^3:     0.000000000000000    

    length representation:                0.000000000000000    

    length rep. / 10^(-40)erg*cm^3:       0.000000000000000    


 Dominant contributions:

    occ. orbital  energy / eV   virt. orbital  energy / eV   |coeff.|^2*100
      16 a1         -9.03           5 b2         -0.17           78.2
      15 a1        -11.10           4 b2         -2.55           17.3
 

 Change of electron number:

             0.000000


 Electric transition dipole moment (velocity rep.):

    x        0.000000        Norm:                  0.034666
    y       -0.034666
    z        0.000000        Norm / debye:          0.088114


 Electric transition dipole moment (length rep.):

    x        0.000000        Norm:                  0.009710
    y        0.009710
    z        0.000000        Norm / debye:          0.024681


 Magnetic transition dipole moment / i:

    x       -0.002482        Norm:                  0.002482
    y        0.000000
    z        0.000000        Norm / Bohr mag.:      0.680159


 Electric quadrupole transition moment:

   xx        0.000000
   yy        0.000000        1/3*trace:             0.000000
   zz        0.000000
   xy        0.000000
   xz        0.000000        Anisotropy:            0.621035
   yz        0.358554




                         5 singlet b2 excitation


 Total energy:                           -436.1397309104483    

 Excitation energy:                      0.2907789984517033    

 Excitation energy / eV:                  7.912502524785115    

 Excitation energy / nm:                  156.6940972443297    

 Excitation energy / cm^(-1):             63818.61330050346    


 Oscillator strength:

    velocity representation:             0.5675238188163101E-02

    length representation:               0.5685798238423648E-02

    mixed representation:                0.5680515759408856E-02


 Rotatory strength:

    velocity representation:              0.000000000000000    

    velocity rep. / 10^(-40)erg*cm^3:     0.000000000000000    

    length representation:                0.000000000000000    

    length rep. / 10^(-40)erg*cm^3:       0.000000000000000    


 Dominant contributions:

    occ. orbital  energy / eV   virt. orbital  energy / eV   |coeff.|^2*100
      10 b1        -10.58           3 a2         -0.99           99.0
 

 Change of electron number:

             0.000000


 Electric transition dipole moment (velocity rep.):

    x        0.000000        Norm:                  0.171102
    y       -0.171102
    z        0.000000        Norm / debye:          0.434902


 Electric transition dipole moment (length rep.):

    x        0.000000        Norm:                  0.171262
    y       -0.171262
    z        0.000000        Norm / debye:          0.435307


 Magnetic transition dipole moment / i:

    x       -0.000343        Norm:                  0.000343
    y        0.000000
    z        0.000000        Norm / Bohr mag.:      0.093930


 Electric quadrupole transition moment:

   xx        0.000000
   yy        0.000000        1/3*trace:             0.000000
   zz        0.000000
   xy        0.000000
   xz        0.000000        Anisotropy:            0.310728
   yz        0.179399




                         6 singlet b2 excitation


 Total energy:                           -436.1315586168790    

 Excitation energy:                      0.2989512920209860    

 Excitation energy / eV:                  8.134882042716411    

 Excitation energy / nm:                  152.4106229880468    

 Excitation energy / cm^(-1):             65612.22441359377    


 Oscillator strength:

    velocity representation:             0.2582683639199461E-02

    length representation:               0.2511629538387398E-02

    mixed representation:                0.2546908815902766E-02


 Rotatory strength:

    velocity representation:              0.000000000000000    

    velocity rep. / 10^(-40)erg*cm^3:     0.000000000000000    

    length representation:                0.000000000000000    

    length rep. / 10^(-40)erg*cm^3:       0.000000000000000    


 Dominant contributions:

    occ. orbital  energy / eV   virt. orbital  energy / eV   |coeff.|^2*100
       3 b2         -8.24          17 a1          1.15           98.7
 

 Change of electron number:

             0.000000


 Electric transition dipole moment (velocity rep.):

    x        0.000000        Norm:                  0.113836
    y        0.113836
    z        0.000000        Norm / debye:          0.289345


 Electric transition dipole moment (length rep.):

    x        0.000000        Norm:                  0.112260
    y        0.112260
    z        0.000000        Norm / debye:          0.285337


 Magnetic transition dipole moment / i:

    x        0.001448        Norm:                  0.001448
    y        0.000000
    z        0.000000        Norm / Bohr mag.:      0.396839


 Electric quadrupole transition moment:

   xx        0.000000
   yy        0.000000        1/3*trace:             0.000000
   zz        0.000000
   xy        0.000000
   xz        0.000000        Anisotropy:            0.930534
   yz       -0.537244




                         7 singlet b2 excitation


 Total energy:                           -436.1002352768879    

 Excitation energy:                      0.3302746320120250    

 Excitation energy / eV:                  8.987233856580177    

 Excitation energy / nm:                  137.9559561763166    

 Excitation energy / cm^(-1):             72486.90289041759    


 Oscillator strength:

    velocity representation:             0.1293991965130931E-01

    length representation:               0.1100499395514882E-01

    mixed representation:                0.1193330371451135E-01


 Rotatory strength:

    velocity representation:              0.000000000000000    

    velocity rep. / 10^(-40)erg*cm^3:     0.000000000000000    

    length representation:                0.000000000000000    

    length rep. / 10^(-40)erg*cm^3:       0.000000000000000    


 Dominant contributions:

    occ. orbital  energy / eV   virt. orbital  energy / eV   |coeff.|^2*100
       2 a2         -8.12          12 b1          2.10           96.5
 

 Change of electron number:

             0.000000


 Electric transition dipole moment (velocity rep.):

    x        0.000000        Norm:                  0.242423
    y        0.242423
    z        0.000000        Norm / debye:          0.616182


 Electric transition dipole moment (length rep.):

    x        0.000000        Norm:                  0.223565
    y        0.223565
    z        0.000000        Norm / debye:          0.568249


 Magnetic transition dipole moment / i:

    x        0.000417        Norm:                  0.000417
    y        0.000000
    z        0.000000        Norm / Bohr mag.:      0.114255


 Electric quadrupole transition moment:

   xx        0.000000
   yy        0.000000        1/3*trace:             0.000000
   zz        0.000000
   xy        0.000000
   xz        0.000000        Anisotropy:            0.847015
   yz       -0.489024




                         8 singlet b2 excitation


 Total energy:                           -436.0884810408110    

 Excitation energy:                      0.3420288680890444    

 Excitation energy / eV:                  9.307083031147657    

 Excitation energy / nm:                  133.2149327469574    

 Excitation energy / cm^(-1):             75066.65951258203    


 Oscillator strength:

    velocity representation:             0.5576617447323167E-02

    length representation:               0.5439728163960624E-02

    mixed representation:                0.5507747542129907E-02


 Rotatory strength:

    velocity representation:              0.000000000000000    

    velocity rep. / 10^(-40)erg*cm^3:     0.000000000000000    

    length representation:                0.000000000000000    

    length rep. / 10^(-40)erg*cm^3:       0.000000000000000    


 Dominant contributions:

    occ. orbital  energy / eV   virt. orbital  energy / eV   |coeff.|^2*100
       3 b2         -8.24          18 a1          2.30           72.3
      15 a1        -11.10           5 b2         -0.17           15.8
      14 a1        -13.24           4 b2         -2.55            7.2
 

 Change of electron number:

             0.000000


 Electric transition dipole moment (velocity rep.):

    x        0.000000        Norm:                  0.156387
    y       -0.156387
    z        0.000000        Norm / debye:          0.397498


 Electric transition dipole moment (length rep.):

    x        0.000000        Norm:                  0.154455
    y       -0.154455
    z        0.000000        Norm / debye:          0.392589


 Magnetic transition dipole moment / i:

    x       -0.001590        Norm:                  0.001590
    y        0.000000
    z        0.000000        Norm / Bohr mag.:      0.435666


 Electric quadrupole transition moment:

   xx        0.000000
   yy        0.000000        1/3*trace:             0.000000
   zz        0.000000
   xy        0.000000
   xz        0.000000        Anisotropy:            1.150529
   yz        0.664258




                         9 singlet b2 excitation


 Total energy:                           -436.0864986267559    

 Excitation energy:                      0.3440112821440809    

 Excitation energy / eV:                  9.361027285372234    

 Excitation energy / nm:                  132.4472627061018    

 Excitation energy / cm^(-1):             75501.74910520567    


 Oscillator strength:

    velocity representation:             0.1144920585755161E-03

    length representation:               0.2606233268597500E-03

    mixed representation:                0.1727405603932452E-03


 Rotatory strength:

    velocity representation:              0.000000000000000    

    velocity rep. / 10^(-40)erg*cm^3:     0.000000000000000    

    length representation:                0.000000000000000    

    length rep. / 10^(-40)erg*cm^3:       0.000000000000000    


 Dominant contributions:

    occ. orbital  energy / eV   virt. orbital  energy / eV   |coeff.|^2*100
      14 a1        -13.24           4 b2         -2.55           36.7
      15 a1        -11.10           5 b2         -0.17           34.6
       3 b2         -8.24          18 a1          2.30           23.2
 

 Change of electron number:

             0.000000


 Electric transition dipole moment (velocity rep.):

    x        0.000000        Norm:                  0.022343
    y       -0.022343
    z        0.000000        Norm / debye:          0.056791


 Electric transition dipole moment (length rep.):

    x        0.000000        Norm:                  0.033711
    y       -0.033711
    z        0.000000        Norm / debye:          0.085684


 Magnetic transition dipole moment / i:

    x       -0.002482        Norm:                  0.002482
    y        0.000000
    z        0.000000        Norm / Bohr mag.:      0.680338


 Electric quadrupole transition moment:

   xx        0.000000
   yy        0.000000        1/3*trace:             0.000000
   zz        0.000000
   xy        0.000000
   xz        0.000000        Anisotropy:            0.157888
   yz        0.091156




                        10 singlet b2 excitation


 Total energy:                           -436.0827472970880    

 Excitation energy:                      0.3477626118119949    

 Excitation energy / eV:                  9.463106203130113    

 Excitation energy / nm:                  131.0185486087624    

 Excitation energy / cm^(-1):             76325.07079870503    


 Oscillator strength:

    velocity representation:             0.1191462546208165E-02

    length representation:               0.5825015548298006E-03

    mixed representation:                0.8330839007493359E-03


 Rotatory strength:

    velocity representation:              0.000000000000000    

    velocity rep. / 10^(-40)erg*cm^3:     0.000000000000000    

    length representation:                0.000000000000000    

    length rep. / 10^(-40)erg*cm^3:       0.000000000000000    


 Dominant contributions:

    occ. orbital  energy / eV   virt. orbital  energy / eV   |coeff.|^2*100
      14 a1        -13.24           4 b2         -2.55           49.8
      15 a1        -11.10           5 b2         -0.17           40.2
 

 Change of electron number:

             0.000000


 Electric transition dipole moment (velocity rep.):

    x        0.000000        Norm:                  0.071688
    y       -0.071688
    z        0.000000        Norm / debye:          0.182213


 Electric transition dipole moment (length rep.):

    x        0.000000        Norm:                  0.050125
    y       -0.050125
    z        0.000000        Norm / debye:          0.127406


 Magnetic transition dipole moment / i:

    x       -0.001710        Norm:                  0.001710
    y        0.000000
    z        0.000000        Norm / Bohr mag.:      0.468791


 Electric quadrupole transition moment:

   xx        0.000000
   yy        0.000000        1/3*trace:             0.000000
   zz        0.000000
   xy        0.000000
   xz        0.000000        Anisotropy:            0.317957
   yz        0.183573


    ------------------------------------------------------------------------
         total  cpu-time : 35 minutes and 17 seconds
         total wall-time : 35 minutes and 18 seconds
    ------------------------------------------------------------------------


   ****  escf : all done  ****


    2024-02-12 12:30:36.266 

