       2
 i =        1, E =      -100.3909901503
  F         3.5252044265        4.0000000127        4.0000000078
  H         4.4747957562        3.9999999873        3.9999999922
       2
 i =        2, E =      -100.3912556923
  F         3.5361978734        4.0000000091        4.0000000056
  H         4.4638026017        3.9999999909        3.9999999944
       2
 i =        3, E =      -100.3912794030
  F         3.5336449702        4.0000000098        4.0000000060
  H         4.4663556503        3.9999999902        3.9999999940
       2
 i =        4, E =      -100.3912794981
  F         3.5337950833        4.0000000098        4.0000000060
  H         4.4662057308        3.9999999902        3.9999999940
       2
 i =        5, E =      -100.3912794981
  F         3.5337950833        4.0000000098        4.0000000060
  H         4.4662057308        3.9999999902        3.9999999940
