 DBCSR| CPU Multiplication driver                                           XSMM (U)
 DBCSR| Multrec recursion limit                                              512 (U)
 DBCSR| Multiplication stack size                                           1000 (D)
 DBCSR| Maximum elements for images                                    UNLIMITED (U)
 DBCSR| Multiplicative factor virtual images                                   1 (U)
 DBCSR| Use multiplication densification                                       T (D)
 DBCSR| Multiplication size stacks                                             3 (U)
 DBCSR| Use memory pool for CPU allocation                                     F (U)
 DBCSR| Number of 3D layers                                               SINGLE (U)
 DBCSR| Use MPI memory allocation                                              F (U)
 DBCSR| Use RMA algorithm                                                      F (U)
 DBCSR| Use Communication thread                                               T (U)
 DBCSR| Communication thread load                                             83 (D)
 DBCSR| MPI: My process id                                                     0
 DBCSR| MPI: Number of processes                                              64
 DBCSR| OMP: Current number of threads                                         2
 DBCSR| OMP: Max number of threads                                             2
 DBCSR| Split modifier for TAS multiplication algorithm                  1.0E+00 (U)


  **** **** ******  **  PROGRAM STARTED AT               2023-12-05 17:25:07.938
 ***** ** ***  *** **   PROGRAM STARTED ON                           nesh-clk496
 **    ****   ******    PROGRAM STARTED BY                              suphc355
 ***** **    ** ** **   PROGRAM PROCESS ID                               2534600
  **** **  *******  **  PROGRAM STARTED IN /gxfs_work/cau/suphc355/homologes/HX/
                                           opt/F

 CP2K| version string:                 CP2K version 2023.2 (Development Version)
 CP2K| source code revision number:                                  git:845a3ae
 CP2K| cp2kflags: omp libint fftw3 libxc parallel mpi_f08 scalapack cosma xsmm s
 CP2K|            pglib mkl
 CP2K| is freely available from                            https://www.cp2k.org/
 CP2K| Program compiled at                           Fr 1. Dez 12:58:35 CET 2023
 CP2K| Program compiled on                                           nesh-login3
 CP2K| Program compiled for                                                local
 CP2K| Data directory path            /gxfs_home/cau/suphc355/software/cp2k/data
 CP2K| Input file name                                                   opt.inp
 
 GLOBAL| Force Environment number                                              1
 GLOBAL| Basis set file name                                   ../../../basis_ae
 GLOBAL| Potential file name                                           POTENTIAL
 GLOBAL| MM Potential file name                                     MM_POTENTIAL
 GLOBAL| Coordinate file name                                          start.xyz
 GLOBAL| Method name                                                        CP2K
 GLOBAL| Project name                                                     HF_opt
 GLOBAL| Run type                                                        GEO_OPT
 GLOBAL| FFT library                                                       FFTW3
 GLOBAL| Diagonalization library                                       ScaLAPACK
 GLOBAL| DGEMM library                                                      BLAS
 GLOBAL| Orthonormality check for eigenvectors                          DISABLED
 GLOBAL| Matrix multiplication library                                     COSMA
 GLOBAL| All-to-all communication in single precision                          F
 GLOBAL| FFTs using library dependent lengths                                  F
 GLOBAL| Grid backend                                                       AUTO
 GLOBAL| Global print level                                               MEDIUM
 GLOBAL| MPI I/O enabled                                                       T
 GLOBAL| Total number of message passing processes                            64
 GLOBAL| Number of threads for this process                                    2
 GLOBAL| This output is from process                                           0
 GLOBAL| Stack size for threads created by OpenMP (OMP_STACKSIZE)        default
 GLOBAL| CPU model name                Intel(R) Xeon(R) Gold 6226R CPU @ 2.90GHz
 GLOBAL| CPUID                                                              1003

 MEMORY| system memory details [Kb]
 MEMORY|                        rank 0           min           max       average
 MEMORY| MemTotal            196682748     196682748     196683224     196682986
 MEMORY| MemFree             176190960     176190960     176363264     176277112
 MEMORY| Buffers                878964        797100        878964        838032
 MEMORY| Cached                1215268       1204732       1215268       1210000
 MEMORY| Slab                   610012        610012        614056        612034
 MEMORY| SReclaimable           219112        203684        219112        211398
 MEMORY| MemLikelyFree       178504304     178504304     178568780     178536542


 *** Fundamental physical constants (SI units) ***

 *** Literature: B. J. Mohr and B. N. Taylor,
 ***             CODATA recommended values of the fundamental physical
 ***             constants: 2006, Web Version 5.1
 ***             http://physics.nist.gov/constants

 Speed of light in vacuum [m/s]                             2.99792458000000E+08
 Magnetic constant or permeability of vacuum [N/A**2]       1.25663706143592E-06
 Electric constant or permittivity of vacuum [F/m]          8.85418781762039E-12
 Planck constant (h) [J*s]                                  6.62606896000000E-34
 Planck constant (h-bar) [J*s]                              1.05457162825177E-34
 Elementary charge [C]                                      1.60217648700000E-19
 Electron mass [kg]                                         9.10938215000000E-31
 Electron g factor [ ]                                     -2.00231930436220E+00
 Proton mass [kg]                                           1.67262163700000E-27
 Fine-structure constant                                    7.29735253760000E-03
 Rydberg constant [1/m]                                     1.09737315685270E+07
 Avogadro constant [1/mol]                                  6.02214179000000E+23
 Boltzmann constant [J/K]                                   1.38065040000000E-23
 Atomic mass unit [kg]                                      1.66053878200000E-27
 Bohr radius [m]                                            5.29177208590000E-11

 *** Conversion factors ***

 [u] -> [a.u.]                                              1.82288848426455E+03
 [Angstrom] -> [Bohr] = [a.u.]                              1.88972613288564E+00
 [a.u.] = [Bohr] -> [Angstrom]                              5.29177208590000E-01
 [a.u.] -> [s]                                              2.41888432650478E-17
 [a.u.] -> [fs]                                             2.41888432650478E-02
 [a.u.] -> [J]                                              4.35974393937059E-18
 [a.u.] -> [N]                                              8.23872205491840E-08
 [a.u.] -> [K]                                              3.15774647902944E+05
 [a.u.] -> [kJ/mol]                                         2.62549961709828E+03
 [a.u.] -> [kcal/mol]                                       6.27509468713739E+02
 [a.u.] -> [Pa]                                             2.94210107994716E+13
 [a.u.] -> [bar]                                            2.94210107994716E+08
 [a.u.] -> [atm]                                            2.90362800883016E+08
 [a.u.] -> [eV]                                             2.72113838565563E+01
 [a.u.] -> [Hz]                                             6.57968392072181E+15
 [a.u.] -> [1/cm] (wave numbers)                            2.19474631370540E+05
 [a.u./Bohr**2] -> [1/cm]                                   5.14048714338585E+03
 

 CELL_TOP| Volume [angstrom^3]:                                       512.000000
 CELL_TOP| Vector a [angstrom     8.000     0.000     0.000   |a| =     8.000000
 CELL_TOP| Vector b [angstrom     0.000     8.000     0.000   |b| =     8.000000
 CELL_TOP| Vector c [angstrom     0.000     0.000     8.000   |c| =     8.000000
 CELL_TOP| Angle (b,c), alpha [degree]:                                90.000000
 CELL_TOP| Angle (a,c), beta  [degree]:                                90.000000
 CELL_TOP| Angle (a,b), gamma [degree]:                                90.000000
 CELL_TOP| Numerically orthorhombic:                                         YES
 CELL_TOP| Periodicity                                                      NONE
 
 GENERATE|  Preliminary Number of Bonds generated:                             0
 GENERATE|  Achieved consistency in connectivity generation.

 CELL| Volume [angstrom^3]:                                           512.000000
 CELL| Vector a [angstrom]:       8.000     0.000     0.000   |a| =     8.000000
 CELL| Vector b [angstrom]:       0.000     8.000     0.000   |b| =     8.000000
 CELL| Vector c [angstrom]:       0.000     0.000     8.000   |c| =     8.000000
 CELL| Angle (b,c), alpha [degree]:                                    90.000000
 CELL| Angle (a,c), beta  [degree]:                                    90.000000
 CELL| Angle (a,b), gamma [degree]:                                    90.000000
 CELL| Numerically orthorhombic:                                             YES
 CELL| Periodicity                                                          NONE

 CELL_REF| Volume [angstrom^3]:                                       512.000000
 CELL_REF| Vector a [angstrom     8.000     0.000     0.000   |a| =     8.000000
 CELL_REF| Vector b [angstrom     0.000     8.000     0.000   |b| =     8.000000
 CELL_REF| Vector c [angstrom     0.000     0.000     8.000   |c| =     8.000000
 CELL_REF| Angle (b,c), alpha [degree]:                                90.000000
 CELL_REF| Angle (a,c), beta  [degree]:                                90.000000
 CELL_REF| Angle (a,b), gamma [degree]:                                90.000000
 CELL_REF| Numerically orthorhombic:                                         YES
 CELL_REF| Periodicity                                                      NONE

 *******************************************************************************
 *******************************************************************************
 **                                                                           **
 **     #####                         ##              ##                      **
 **    ##   ##            ##          ##              ##                      **
 **   ##     ##                       ##            ######                    **
 **   ##     ##  ##   ##  ##   #####  ##  ##   ####   ##    #####    #####    **
 **   ##     ##  ##   ##  ##  ##      ## ##   ##      ##   ##   ##  ##   ##   **
 **   ##  ## ##  ##   ##  ##  ##      ####     ###    ##   ######   ######    **
 **    ##  ###   ##   ##  ##  ##      ## ##      ##   ##   ##       ##        **
 **     #######   #####   ##   #####  ##  ##  ####    ##    #####   ##        **
 **           ##                                                    ##        **
 **                                                                           **
 **                                                ... make the atoms dance   **
 **                                                                           **
 **            Copyright (C) by CP2K developers group (2000-2023)             **
 **                      J. Chem. Phys. 152, 194103 (2020)                    **
 **                                                                           **
 *******************************************************************************

 DFT| Spin restricted Kohn-Sham (RKS) calculation                            RKS
 DFT| Multiplicity                                                             1
 DFT| Number of spin states                                                    1
 DFT| Charge                                                                   0
 DFT| Self-interaction correction (SIC)                                       NO
 DFT| Cutoffs: density                                              1.000000E-10
 DFT|          gradient                                             1.000000E-10
 DFT|          tau                                                  1.000000E-10
 DFT|          cutoff_smoothing_range                               0.000000E+00
 DFT| XC density smoothing                                                  NONE
 DFT| XC derivatives                                                          PW

 FUNCTIONAL| PBE:
 FUNCTIONAL| J.P.Perdew, K.Burke, M.Ernzerhof, Phys. Rev. Letter, vol. 77, n 18,
 FUNCTIONAL|  pp. 3865-3868, (1996) {spin unpolarized}                          


 QS| Method:                                                                GAPW
 QS| Density plane wave grid type                        NON-SPHERICAL FULLSPACE
 QS| Number of grid levels:                                                    5
 QS| Density cutoff [a.u.]:                                                600.0
 QS| Multi grid cutoff [a.u.]: 1) grid level                               600.0
 QS|                           2) grid level                               200.0
 QS|                           3) grid level                                66.7
 QS|                           4) grid level                                22.2
 QS|                           5) grid level                                 7.4
 QS| Grid level progression factor:                                          3.0
 QS| Relative density cutoff [a.u.]:                                        40.0
 QS| Interaction thresholds: eps_pgf_orb:                                1.0E-30
 QS|                         eps_filter_matrix:                          0.0E+00
 QS|                         eps_core_charge:                            1.0E-17
 QS|                         eps_rho_gspace:                             1.0E-15
 QS|                         eps_rho_rspace:                             1.0E-15
 QS|                         eps_gvg_rspace:                             3.2E-08
 QS|                         eps_ppl:                                    1.0E-02
 QS|                         eps_ppnl:                                   3.2E-10
 QS| GAPW|      One center basis from orbital basis primitives
 QS| GAPW|                   eps_fit:                                    1.0E-04
 QS| GAPW|                   eps_iso:                                    1.0E-12
 QS| GAPW|                   eps_svd:                                    1.0E-08
 QS| GAPW|                   eps_cpc:                                    1.0E-15
 QS| GAPW|   atom-r-grid: quadrature:                                     GC_LOG
 QS| GAPW|      atom-s-grid:  max l :                                          6
 QS| GAPW|      max_l_rho0 :                                                   2


 ATOMIC KIND INFORMATION

  1. Atomic kind: F                                     Number of atoms:       1

     Orbital Basis Set                                                 def2-TZVP

       Number of orbital shell sets:                                          11
       Number of orbital shells:                                              11
       Number of primitive Cartesian functions:                               20
       Number of Cartesian basis functions:                                   36
       Number of spherical basis functions:                                   31
       Norm type:                                                              2

       Normalised Cartesian orbitals:

                        Set   Shell   Orbital            Exponent    Coefficient

                          1       1    1s            35479.100441       1.035166
                                                      5318.472898       1.933117
                                                      1210.481098       3.308168
                                                       342.855181       5.190436
                                                       112.019432       7.145372
                                                        40.714740       7.785360

                          2       1    1s               16.039678       3.615646
                                                         6.503819       1.164999

                          3       1    1s                1.544048       0.987201

                          4       1    1s                0.612235       0.493286

                          5       1    1s                0.240280       0.244595

                          6       1    1px              80.233900       4.217408
                                                        18.594011       4.717426
                                                         5.686790       4.084910
                                                         1.951101       2.299897
                          6       1    1py              80.233900       4.217408
                                                        18.594011       4.717426
                                                         5.686790       4.084910
                                                         1.951101       2.299897
                          6       1    1pz              80.233900       4.217408
                                                        18.594011       4.717426
                                                         5.686790       4.084910
                                                         1.951101       2.299897

                          7       1    1px               0.669702       0.863559
                          7       1    1py               0.669702       0.863559
                          7       1    1pz               0.669702       0.863559

                          8       1    1px               0.216513       0.210521
                          8       1    1py               0.216513       0.210521
                          8       1    1pz               0.216513       0.210521

                          9       1    1dx2              3.107000      11.967589
                          9       1    1dxy              3.107000      20.728471
                          9       1    1dxz              3.107000      20.728471
                          9       1    1dy2              3.107000      11.967589
                          9       1    1dyz              3.107000      20.728471
                          9       1    1dz2              3.107000      11.967589

                         10       1    1dx2              0.855000       1.251267
                         10       1    1dxy              0.855000       2.167259
                         10       1    1dxz              0.855000       2.167259
                         10       1    1dy2              0.855000       1.251267
                         10       1    1dyz              0.855000       2.167259
                         10       1    1dz2              0.855000       1.251267

                         11       1    1fx3              1.917000       6.365818
                         11       1    1fx2y             1.917000      14.234401
                         11       1    1fx2z             1.917000      14.234401
                         11       1    1fxy2             1.917000      14.234401
                         11       1    1fxyz             1.917000      24.654706
                         11       1    1fxz2             1.917000      14.234401
                         11       1    1fy3              1.917000       6.365818
                         11       1    1fy2z             1.917000      14.234401
                         11       1    1fyz2             1.917000      14.234401
                         11       1    1fz3              1.917000       6.365818

       Atomic covalent radius [Angstrom]:                                  0.720

       Atomic van der Waals radius [Angstrom]:                             1.470

     The atoms of this atomic kind are PAW atoms (GAPW):
       Hard Gaussian function radius:                                      1.512
       Rho0 radius:                                                        1.512
       Maximum GTO radius used for PAW projector construction:            24.566

     GAPW Soft Basis Set                                          def2-TZVP_soft

       Number of orbital shell sets:                                          11
       Number of orbital shells:                                              11
       Number of primitive Cartesian functions:                                9
       Number of Cartesian basis functions:                                   36
       Number of spherical basis functions:                                   31
       Norm type:                                                              2

       Normalised Cartesian orbitals:

                        Set   Shell   Orbital            Exponent    Coefficient

                          1       1    1s         

                          2       1    1s         

                          3       1    1s                1.544048       0.987201

                          4       1    1s                0.612235       0.493286

                          5       1    1s                0.240280       0.244595

                          6       1    1px               1.951101       2.299897
                          6       1    1py               1.951101       2.299897
                          6       1    1pz               1.951101       2.299897

                          7       1    1px               0.669702       0.863559
                          7       1    1py               0.669702       0.863559
                          7       1    1pz               0.669702       0.863559

                          8       1    1px               0.216513       0.210521
                          8       1    1py               0.216513       0.210521
                          8       1    1pz               0.216513       0.210521

                          9       1    1dx2              3.107000      11.967589
                          9       1    1dxy              3.107000      20.728471
                          9       1    1dxz              3.107000      20.728471
                          9       1    1dy2              3.107000      11.967589
                          9       1    1dyz              3.107000      20.728471
                          9       1    1dz2              3.107000      11.967589

                         10       1    1dx2              0.855000       1.251267
                         10       1    1dxy              0.855000       2.167259
                         10       1    1dxz              0.855000       2.167259
                         10       1    1dy2              0.855000       1.251267
                         10       1    1dyz              0.855000       2.167259
                         10       1    1dz2              0.855000       1.251267

                         11       1    1fx3              1.917000       6.365818
                         11       1    1fx2y             1.917000      14.234401
                         11       1    1fx2z             1.917000      14.234401
                         11       1    1fxy2             1.917000      14.234401
                         11       1    1fxyz             1.917000      24.654706
                         11       1    1fxz2             1.917000      14.234401
                         11       1    1fy3              1.917000       6.365818
                         11       1    1fy2z             1.917000      14.234401
                         11       1    1fyz2             1.917000      14.234401
                         11       1    1fz3              1.917000       6.365818

     AE Potential information for                                            ALL

       Description:                                       All-electron potential
                                          Krack, Parrinello, PCCP 2, 2105 (2000)

       Gaussian exponent of the core charge distribution:              10.470541
       Electronic configuration (s p d ...):                           4   5   0

  2. Atomic kind: H                                     Number of atoms:       1

     Orbital Basis Set                                                 def2-TZVP

       Number of orbital shell sets:                                           4
       Number of orbital shells:                                               4
       Number of primitive Cartesian functions:                                6
       Number of Cartesian basis functions:                                    6
       Number of spherical basis functions:                                    6
       Norm type:                                                              2

       Normalised Cartesian orbitals:

                        Set   Shell   Orbital            Exponent    Coefficient

                          1       1    1s               34.061341       0.255630
                                                         5.123575       0.461360
                                                         1.164663       0.681121

                          2       1    1s                0.327230       0.308355

                          3       1    1s                0.103072       0.129648

                          4       1    1px               0.800000       1.078456
                          4       1    1py               0.800000       1.078456
                          4       1    1pz               0.800000       1.078456

       Atomic covalent radius [Angstrom]:                                  0.320

       Atomic van der Waals radius [Angstrom]:                             1.090

     The atoms of this atomic kind are PAW atoms (GAPW):
       Hard Gaussian function radius:                                      1.200
       Rho0 radius:                                                        1.200
       Maximum GTO radius used for PAW projector construction:            24.566

     GAPW Soft Basis Set                                          def2-TZVP_soft

       Number of orbital shell sets:                                           4
       Number of orbital shells:                                               4
       Number of primitive Cartesian functions:                                5
       Number of Cartesian basis functions:                                    6
       Number of spherical basis functions:                                    6
       Norm type:                                                              2

       Normalised Cartesian orbitals:

                        Set   Shell   Orbital            Exponent    Coefficient

                          1       1    1s                5.123575       0.461360
                                                         1.164663       0.681121

                          2       1    1s                0.327230       0.308355

                          3       1    1s                0.103072       0.129648

                          4       1    1px               0.800000       1.078456
                          4       1    1py               0.800000       1.078456
                          4       1    1pz               0.800000       1.078456

     AE Potential information for                                            ALL

       Description:                                       All-electron potential
                                          Krack, Parrinello, PCCP 2, 2105 (2000)

       Gaussian exponent of the core charge distribution:              12.500000
       Electronic configuration (s p d ...):                           1   0   0


 MOLECULE KIND INFORMATION


 All atoms are their own molecule, skipping detailed information


 TOTAL NUMBERS AND MAXIMUM NUMBERS

  Total number of            - Atomic kinds:                                   2
                             - Atoms:                                          2
                             - Shell sets:                                    15
                             - Shells:                                        15
                             - Primitive Cartesian functions:                 26
                             - Cartesian basis functions:                     42
                             - Spherical basis functions:                     37

  Maximum angular momentum of the orbital basis functions:                     3


 MODULE QUICKSTEP: ATOMIC COORDINATES IN ANGSTROM

   Atom Kind Element         X             Y             Z       Z(eff)     Mass
      1    1 F     9      3.500000      4.000000      4.000000   9.0000  18.9984
      2    2 H     1      4.500000      4.000000      4.000000   1.0000   1.0079



 SCF PARAMETERS         Density guess:                                    ATOMIC
                        --------------------------------------------------------
                        max_scf:                                              20
                        max_scf_history:                                       0
                        max_diis:                                              4
                        --------------------------------------------------------
                        eps_scf:                                        1.00E-08
                        eps_scf_history:                                0.00E+00
                        eps_diis:                                       1.00E-01
                        eps_eigval:                                     1.00E-05
                        --------------------------------------------------------
                        level_shift [a.u.]:                             0.000000
                        --------------------------------------------------------
                        Outer loop SCF in use 
                        No variables optimised in outer loop
                        eps_scf                                         1.00E-08
                        max_scf                                               50
                        No outer loop optimization
                        step_size                                       5.00E-01

 PW_GRID| Information for grid number                                          1
 PW_GRID| Grid distributed over                                    64 processors
 PW_GRID| Real space group dimensions                                    64    1
 PW_GRID| the grid is blocked:                                                NO
 PW_GRID| Cutoff [a.u.]                                                   1200.0
 PW_GRID| spherical cutoff:                                                   NO
 PW_GRID|   Bounds   1           -120     119                Points:         240
 PW_GRID|   Bounds   2           -120     119                Points:         240
 PW_GRID|   Bounds   3           -120     119                Points:         240
 PW_GRID| Volume element (a.u.^3)  0.2499E-03     Volume (a.u.^3)      3455.1473
 PW_GRID| Grid span                                                    FULLSPACE
 PW_GRID|   Distribution                         Average         Max         Min
 PW_GRID|   G-Vectors                           216000.0      216000      216000
 PW_GRID|   G-Rays                                 900.0         900         900
 PW_GRID|   Real Space Points                   216000.0      230400      172800

 PW_GRID| Information for grid number                                          2
 PW_GRID| Number of the reference grid                                         1
 PW_GRID| Grid distributed over                                    64 processors
 PW_GRID| Real space group dimensions                                    64    1
 PW_GRID| the grid is blocked:                                                NO
 PW_GRID| Cutoff [a.u.]                                                    600.0
 PW_GRID| spherical cutoff:                                                   NO
 PW_GRID|   Bounds   1            -90      89                Points:         180
 PW_GRID|   Bounds   2            -90      89                Points:         180
 PW_GRID|   Bounds   3            -90      89                Points:         180
 PW_GRID| Volume element (a.u.^3)  0.5924E-03     Volume (a.u.^3)      3455.1473
 PW_GRID| Grid span                                                    FULLSPACE
 PW_GRID|   Distribution                         Average         Max         Min
 PW_GRID|   G-Vectors                            91125.0       91440       90720
 PW_GRID|   G-Rays                                 506.2         508         504
 PW_GRID|   Real Space Points                    91125.0       97200       64800

 PW_GRID| Information for grid number                                          3
 PW_GRID| Number of the reference grid                                         2
 PW_GRID| Grid distributed over                                    64 processors
 PW_GRID| Real space group dimensions                                    64    1
 PW_GRID| the grid is blocked:                                                NO
 PW_GRID| Cutoff [a.u.]                                                    200.0
 PW_GRID| spherical cutoff:                                                   NO
 PW_GRID|   Bounds   1            -50      49                Points:         100
 PW_GRID|   Bounds   2            -50      49                Points:         100
 PW_GRID|   Bounds   3            -50      49                Points:         100
 PW_GRID| Volume element (a.u.^3)  0.3455E-02     Volume (a.u.^3)      3455.1473
 PW_GRID| Grid span                                                    FULLSPACE
 PW_GRID|   Distribution                         Average         Max         Min
 PW_GRID|   G-Vectors                            15625.0       15800       15500
 PW_GRID|   G-Rays                                 156.2         158         155
 PW_GRID|   Real Space Points                    15625.0       20000       10000

 PW_GRID| Information for grid number                                          4
 PW_GRID| Number of the reference grid                                         2
 PW_GRID| Grid distributed over                                    64 processors
 PW_GRID| Real space group dimensions                                     8    8
 PW_GRID| the grid is blocked:                                                NO
 PW_GRID| Cutoff [a.u.]                                                     66.7
 PW_GRID| spherical cutoff:                                                   NO
 PW_GRID|   Bounds   1            -30      29                Points:          60
 PW_GRID|   Bounds   2            -30      29                Points:          60
 PW_GRID|   Bounds   3            -30      29                Points:          60
 PW_GRID| Volume element (a.u.^3)  0.1600E-01     Volume (a.u.^3)      3455.1473
 PW_GRID| Grid span                                                    FULLSPACE
 PW_GRID|   Distribution                         Average         Max         Min
 PW_GRID|   G-Vectors                             3375.0        3540        3240
 PW_GRID|   G-Rays                                  56.2          59          54
 PW_GRID|   Real Space Points                     3375.0        3840        2940

 PW_GRID| Information for grid number                                          5
 PW_GRID| Number of the reference grid                                         2
 PW_GRID| Grid distributed over                                    64 processors
 PW_GRID| Real space group dimensions                                     8    8
 PW_GRID| the grid is blocked:                                                NO
 PW_GRID| Cutoff [a.u.]                                                     22.2
 PW_GRID| spherical cutoff:                                                   NO
 PW_GRID|   Bounds   1            -18      17                Points:          36
 PW_GRID|   Bounds   2            -18      17                Points:          36
 PW_GRID|   Bounds   3            -18      17                Points:          36
 PW_GRID| Volume element (a.u.^3)  0.7406E-01     Volume (a.u.^3)      3455.1473
 PW_GRID| Grid span                                                    FULLSPACE
 PW_GRID|   Distribution                         Average         Max         Min
 PW_GRID|   G-Vectors                              729.0         792         684
 PW_GRID|   G-Rays                                  20.2          22          19
 PW_GRID|   Real Space Points                      729.0         900         576

 PW_GRID| Information for grid number                                          6
 PW_GRID| Number of the reference grid                                         2
 PW_GRID| Grid distributed over                                    64 processors
 PW_GRID| Real space group dimensions                                     8    8
 PW_GRID| the grid is blocked:                                                NO
 PW_GRID| Cutoff [a.u.]                                                      7.4
 PW_GRID| spherical cutoff:                                                   NO
 PW_GRID|   Bounds   1            -10       9                Points:          20
 PW_GRID|   Bounds   2            -10       9                Points:          20
 PW_GRID|   Bounds   3            -10       9                Points:          20
 PW_GRID| Volume element (a.u.^3)  0.4319         Volume (a.u.^3)      3455.1473
 PW_GRID| Grid span                                                    FULLSPACE
 PW_GRID|   Distribution                         Average         Max         Min
 PW_GRID|   G-Vectors                              125.0         140         100
 PW_GRID|   G-Rays                                   6.2           7           5
 PW_GRID|   Real Space Points                      125.0         180          80

 POISSON| Solver                                          Martyna-Tuckerman (MT)
 POISSON| MT| Alpha                                                        7.000
 POISSON| MT| Relative cutoff                                                2.0
 POISSON| Periodicity                                                       NONE

 RS_GRID| Information for grid number                                          2
 RS_GRID|   Bounds   1            -90      89                Points:         180
 RS_GRID|   Bounds   2            -90      89                Points:         180
 RS_GRID|   Bounds   3            -90      89                Points:         180
 RS_GRID| Real space distribution over                                  8 groups
 RS_GRID| Real space distribution along direction                              2
 RS_GRID| Border size                                                         36
 RS_GRID| Real space distribution over                                  8 groups
 RS_GRID| Real space distribution along direction                              3
 RS_GRID| Border size                                                         36
 RS_GRID|   Distribution                         Average         Max         Min
 RS_GRID|   Planes                                  94.5          95          94
 RS_GRID|   Distribution                         Average         Max         Min
 RS_GRID|   Planes                                  94.5          95          94

 RS_GRID| Information for grid number                                          3
 RS_GRID|   Bounds   1            -50      49                Points:         100
 RS_GRID|   Bounds   2            -50      49                Points:         100
 RS_GRID|   Bounds   3            -50      49                Points:         100
 RS_GRID| Real space fully replicated
 RS_GRID| Group size                                                           1

 RS_GRID| Information for grid number                                          4
 RS_GRID|   Bounds   1            -30      29                Points:          60
 RS_GRID|   Bounds   2            -30      29                Points:          60
 RS_GRID|   Bounds   3            -30      29                Points:          60
 RS_GRID| Real space fully replicated
 RS_GRID| Group size                                                           1

 RS_GRID| Information for grid number                                          5
 RS_GRID|   Bounds   1            -18      17                Points:          36
 RS_GRID|   Bounds   2            -18      17                Points:          36
 RS_GRID|   Bounds   3            -18      17                Points:          36
 RS_GRID| Real space fully replicated
 RS_GRID| Group size                                                           1

 RS_GRID| Information for grid number                                          6
 RS_GRID|   Bounds   1            -10       9                Points:          20
 RS_GRID|   Bounds   2            -10       9                Points:          20
 RS_GRID|   Bounds   3            -10       9                Points:          20
 RS_GRID| Real space fully replicated
 RS_GRID| Group size                                                           1

 BFGS| Use rational function optimization for step estimation:                NO
 BFGS| Use model Hessian for initial guess:                                  YES
 BFGS| Restart Hessian:                                                       NO
 BFGS| Trust radius:                                                       0.472

 *******************************************************************************
 ***                     STARTING GEOMETRY OPTIMIZATION                      ***
 ***                                   BFGS                                  ***
 *******************************************************************************

 Number of electrons:                                                         10
 Number of occupied orbitals:                                                  5
 Number of molecular orbitals:                                                 5

 Number of orbital functions:                                                 37
 Number of independent orbital functions:                                     37

 Extrapolation method: initial_guess

 Atomic guess: The first density matrix is obtained in terms of atomic orbitals
               and electronic configurations assigned to each atomic kind

 Guess for atomic kind: F

 Electronic structure
    Total number of core electrons                                          0.00
    Total number of valence electrons                                       9.00
    Total number of electrons                                               9.00
    Multiplicity                                                   not specified
    S      2.00  2.00
    P      5.00
 

 *******************************************************************************
                  Iteration          Convergence                     Energy [au]
 *******************************************************************************
                          1         1.44247                     -98.919302612217
                          2         1.78049                     -98.865141798239
                          3        0.110199                     -99.088444290991
                          4        0.403602E-02                 -99.089572347862
                          5        0.204248E-03                 -99.089573426278
                          6        0.420105E-05                 -99.089573429432
                          7        0.481056E-05                 -99.089573429432
                          8        0.141011E-07                 -99.089573429434

 Energy components [Hartree]           Total Energy ::          -99.089573429434
                                        Band Energy ::          -52.587484361159
                                     Kinetic Energy ::           98.657649928640
                                   Potential Energy ::         -197.747223358073
                                      Virial (-V/T) ::            2.004378003136
                                        Core Energy ::         -139.033521023864
                                          XC Energy ::           -9.626910165406
                                     Coulomb Energy ::           49.570857759837

 Orbital energies  State     L     Occupation   Energy[a.u.]          Energy[eV]

                       1     0          2.000     -24.185291         -658.115231
                       2     0          2.000      -1.081754          -29.436032
 
                       1     1          5.000      -0.410679          -11.175140
 

 Total Electron Density at R=0:                                       430.543562

 Guess for atomic kind: H

 Electronic structure
    Total number of core electrons                                          0.00
    Total number of valence electrons                                       1.00
    Total number of electrons                                               1.00
    Multiplicity                                                   not specified
    S      1.00
 

 *******************************************************************************
                  Iteration          Convergence                     Energy [au]
 *******************************************************************************
                          1        0.917598E-02                  -0.444895232610
                          2        0.101733E-02                  -0.444969959338
                          3        0.739292E-04                  -0.444971980690
                          4        0.601377E-07                  -0.444971989573

 Energy components [Hartree]           Total Energy ::           -0.444971989573
                                        Band Energy ::           -0.230448725171
                                     Kinetic Energy ::            0.428990089350
                                   Potential Energy ::           -0.873962078923
                                      Virial (-V/T) ::            2.037254707321
                                        Core Energy ::           -0.496265746842
                                          XC Energy ::           -0.234272986041
                                     Coulomb Energy ::            0.285566743311

 Orbital energies  State     L     Occupation   Energy[a.u.]          Energy[eV]

                       1     0          1.000      -0.230449           -6.270829
 

 Total Electron Density at R=0:                                         0.247098
 Re-scaling the density matrix to get the right number of electrons
                  # Electrons              Trace(P)               Scaling factor
                           10                10.000                        1.000


 SCF WAVEFUNCTION OPTIMIZATION

  ----------------------------------- OT ---------------------------------------
  Minimizer      : DIIS                : direct inversion
                                         in the iterative subspace
                                         using   7 DIIS vectors
                                         safer DIIS on
  Preconditioner : FULL_ALL            : diagonalization, state selective
  Precond_solver : DEFAULT
  stepsize       :    0.15000000                  energy_gap     :    0.08000000
  eps_taylor     :   0.10000E-15                  max_taylor     :             4
  ----------------------------------- OT ---------------------------------------

  Step     Update method      Time    Convergence         Total energy    Change
  ------------------------------------------------------------------------------
     1 OT DIIS     0.15E+00   24.9     0.27451004       -98.9661155382 -9.90E+01
     2 OT DIIS     0.15E+00   17.6     0.15062229       -99.9869110369 -1.02E+00
     3 OT DIIS     0.15E+00   18.4     0.07538082      -100.2396444532 -2.53E-01
     4 OT DIIS     0.15E+00   18.2     0.04425438      -100.3490770639 -1.09E-01
     5 OT DIIS     0.15E+00   17.0     0.02006651      -100.3724807636 -2.34E-02
     6 OT DIIS     0.15E+00   17.2     0.01475615      -100.3811944687 -8.71E-03
     7 OT DIIS     0.15E+00   18.0     0.00632963      -100.3859899884 -4.80E-03
     8 OT DIIS     0.15E+00   17.4     0.00172280      -100.3871920935 -1.20E-03
     9 OT DIIS     0.15E+00   17.4     0.00059997      -100.3872912015 -9.91E-05
    10 OT DIIS     0.15E+00   17.2     0.00028759      -100.3872993709 -8.17E-06
    11 OT DIIS     0.15E+00   17.5     0.00009380      -100.3873010961 -1.73E-06
    12 OT DIIS     0.15E+00   16.4     0.00001547      -100.3873013221 -2.26E-07
    13 OT DIIS     0.15E+00   17.1     0.00000376      -100.3873013293 -7.23E-09
    14 OT DIIS     0.15E+00   17.6     0.00000119      -100.3873013297 -3.43E-10
    15 OT DIIS     0.15E+00   17.3     0.00000037      -100.3873013297 -3.33E-11
    16 OT DIIS     0.15E+00   17.3     0.00000010      -100.3873013297 -3.42E-12
    17 OT DIIS     0.15E+00   17.2     0.00000004      -100.3873013297 -2.54E-12
    18 OT DIIS     0.15E+00   17.7     7.0900E-09      -100.3873013297 -3.10E-12

  *** SCF run converged in    18 steps ***


  Electronic density on regular grids:         -7.2494713571        2.7505286429
  Core density on regular grids:               10.0000000000        0.0000000000
  Hard and soft densities (Lebedev):          -11.4352403342       -8.6847116384
  Total Rho_soft + Rho1_hard - Rho1_soft      -10.0000000529
  Total charge density (r-space):              -0.0000000529
  Total Rho_soft + Rho0_soft (g-space):        -0.0000002999

  Overlap energy of the core charge distribution:               0.00000000084768
  Self energy of the core charge distribution:               -105.97386364366757
  Core Hamiltonian energy:                                     -4.25308769290930
  Hartree energy:                                              21.89592969441074
  Exchange-correlation energy:                                 -4.13218008830282

  GAPW| Exc from hard and soft atomic rho1:                    -6.56090131969237
  GAPW| local Eh = 1 center integrals:                         -1.36319828040791

  Total energy:                                              -100.38730132972152

  outer SCF iter =    1 RMS gradient =   0.71E-08 energy =       -100.3873013297
  outer SCF loop converged in   1 iterations or   18 steps


 !-----------------------------------------------------------------------------!
                     Mulliken Population Analysis

 #  Atom  Element  Kind  Atomic population                           Net charge
       1     F        1          9.392637                             -0.392637
       2     H        2          0.607363                              0.392637
 # Total charge                             10.000000                 -0.000000

 !-----------------------------------------------------------------------------!

 !-----------------------------------------------------------------------------!
                           Hirshfeld Charges

  #Atom  Element  Kind  Ref Charge     Population                    Net charge
      1       F      1       9.000          9.652                        -0.652
      2       H      2       1.000          0.347                         0.653

  Total Charge                                                            0.000
 !-----------------------------------------------------------------------------!

 ENERGY| Total FORCE_EVAL ( QS ) energy [a.u.]:             -100.387301329724195

 --------  Informations at step =     0 ------------
  Optimization Method        =                 BFGS
  Total Energy               =      -100.3873013297
  Used time                  =              335.199
 ---------------------------------------------------

 --------------------------
 OPTIMIZATION STEP:      1
 --------------------------

 Number of electrons:                                                         10
 Number of occupied orbitals:                                                  5
 Number of molecular orbitals:                                                 5

 Number of orbital functions:                                                 37
 Number of independent orbital functions:                                     37

 Parameters for the always stable predictor-corrector (ASPC) method:

  ASPC order: 0

  B(1) =   1.000000

 Extrapolation method: ASPC


 SCF WAVEFUNCTION OPTIMIZATION

  ----------------------------------- OT ---------------------------------------
  Minimizer      : DIIS                : direct inversion
                                         in the iterative subspace
                                         using   7 DIIS vectors
                                         safer DIIS on
  Preconditioner : FULL_ALL            : diagonalization, state selective
  Precond_solver : DEFAULT
  stepsize       :    0.15000000                  energy_gap     :    0.08000000
  eps_taylor     :   0.10000E-15                  max_taylor     :             4
  ----------------------------------- OT ---------------------------------------

  Step     Update method      Time    Convergence         Total energy    Change
  ------------------------------------------------------------------------------
     1 OT DIIS     0.15E+00   23.2     0.00594717      -100.3903465999 -1.00E+02
     2 OT DIIS     0.15E+00   14.2     0.00269266      -100.3908834381 -5.37E-04
     3 OT DIIS     0.15E+00   14.4     0.00130267      -100.3909665675 -8.31E-05
     4 OT DIIS     0.15E+00   14.7     0.00010466      -100.3909899109 -2.33E-05
     5 OT DIIS     0.15E+00   14.2     0.00001741      -100.3909901437 -2.33E-07
     6 OT DIIS     0.15E+00   14.5     0.00000081      -100.3909901503 -6.60E-09
     7 OT DIIS     0.15E+00   14.9     0.00000013      -100.3909901503 -1.75E-11
     8 OT DIIS     0.15E+00   14.5     0.00000002      -100.3909901503 -6.39E-13
     9 OT DIIS     0.15E+00   14.7     1.4843E-09      -100.3909901503 -7.11E-13

  *** SCF run converged in     9 steps ***


  Electronic density on regular grids:         -7.2436672882        2.7563327118
  Core density on regular grids:               10.0000000000        0.0000000000
  Hard and soft densities (Lebedev):          -11.6941976871       -8.9378651560
  Total Rho_soft + Rho1_hard - Rho1_soft       -9.9999998193
  Total charge density (r-space):               0.0000001807
  Total Rho_soft + Rho0_soft (g-space):        -0.0000000674

  Overlap energy of the core charge distribution:               0.00000000692728
  Self energy of the core charge distribution:               -105.97386364366757
  Core Hamiltonian energy:                                     -4.17899503467088
  Hartree energy:                                              21.82665997041808
  Exchange-correlation energy:                                 -4.14751714991735

  GAPW| Exc from hard and soft atomic rho1:                    -6.56785896072694
  GAPW| local Eh = 1 center integrals:                         -1.34941533864700

  Total energy:                                              -100.39099015028435

  outer SCF iter =    1 RMS gradient =   0.15E-08 energy =       -100.3909901503
  outer SCF loop converged in   1 iterations or    9 steps


 !-----------------------------------------------------------------------------!
                     Mulliken Population Analysis

 #  Atom  Element  Kind  Atomic population                           Net charge
       1     F        1          9.391203                             -0.391203
       2     H        2          0.608797                              0.391203
 # Total charge                             10.000000                  0.000000

 !-----------------------------------------------------------------------------!

 !-----------------------------------------------------------------------------!
                           Hirshfeld Charges

  #Atom  Element  Kind  Ref Charge     Population                    Net charge
      1       F      1       9.000          9.646                        -0.646
      2       H      2       1.000          0.354                         0.646

  Total Charge                                                            0.000
 !-----------------------------------------------------------------------------!

 ENERGY| Total FORCE_EVAL ( QS ) energy [a.u.]:             -100.390990150280473

 --------  Informations at step =     1 ------------
  Optimization Method        =                 BFGS
  Total Energy               =      -100.3909901503
  Real energy change         =        -0.0036888206
  Predicted change in energy =        -0.0027371138
  Scaling factor             =         0.0000000000
  Step size                  =         0.0476294635
  Trust radius               =         0.4724315332
  Decrease in energy         =                  YES
  Used time                  =              150.272

  Convergence check :
  Max. step size             =         0.0476294635
  Conv. limit for step size  =         0.0030000000
  Convergence in step size   =                   NO
  RMS step size              =         0.0274987839
  Conv. limit for RMS step   =         0.0015000000
  Convergence in RMS step    =                   NO
  Max. gradient              =         0.0174528804
  Conv. limit for gradients  =         0.0004500000
  Conv. for gradients        =                   NO
  RMS gradient               =         0.0100764141
  Conv. limit for RMS grad.  =         0.0003000000
  Conv. for gradients        =                   NO
 ---------------------------------------------------
 Estimated peak process memory after this step [MiB]                         560

 --------------------------
 OPTIMIZATION STEP:      2
 --------------------------

 Number of electrons:                                                         10
 Number of occupied orbitals:                                                  5
 Number of molecular orbitals:                                                 5

 Number of orbital functions:                                                 37
 Number of independent orbital functions:                                     37

 Parameters for the always stable predictor-corrector (ASPC) method:

  ASPC order: 0

  B(1) =   2.000000
  B(2) =  -1.000000

 Extrapolation method: ASPC


 SCF WAVEFUNCTION OPTIMIZATION

  ----------------------------------- OT ---------------------------------------
  Minimizer      : DIIS                : direct inversion
                                         in the iterative subspace
                                         using   7 DIIS vectors
                                         safer DIIS on
  Preconditioner : FULL_ALL            : diagonalization, state selective
  Precond_solver : DEFAULT
  stepsize       :    0.15000000                  energy_gap     :    0.08000000
  eps_taylor     :   0.10000E-15                  max_taylor     :             4
  ----------------------------------- OT ---------------------------------------

  Step     Update method      Time    Convergence         Total energy    Change
  ------------------------------------------------------------------------------
     1 OT DIIS     0.15E+00   23.2     0.00316967      -100.3910688231 -1.00E+02
     2 OT DIIS     0.15E+00   16.0     0.00135612      -100.3912269120 -1.58E-04
     3 OT DIIS     0.15E+00   14.9     0.00068288      -100.3912494852 -2.26E-05
     4 OT DIIS     0.15E+00   14.5     0.00005869      -100.3912556203 -6.14E-06
     5 OT DIIS     0.15E+00   15.5     0.00000956      -100.3912556903 -7.01E-08
     6 OT DIIS     0.15E+00   14.7     0.00000041      -100.3912556923 -1.99E-09
     7 OT DIIS     0.15E+00   14.7     0.00000006      -100.3912556923 -4.32E-12
     8 OT DIIS     0.15E+00   14.9     0.00000001      -100.3912556923 -7.43E-12
     9 OT DIIS     0.15E+00   14.7     7.2962E-10      -100.3912556923  5.83E-13

  *** SCF run converged in     9 steps ***


  Electronic density on regular grids:         -7.2408370531        2.7591629469
  Core density on regular grids:               10.0000000000        0.0000000000
  Hard and soft densities (Lebedev):          -11.8198361523       -9.0606735397
  Total Rho_soft + Rho1_hard - Rho1_soft       -9.9999996658
  Total charge density (r-space):               0.0000003342
  Total Rho_soft + Rho0_soft (g-space):         0.0000000866

  Overlap energy of the core charge distribution:               0.00000001679297
  Self energy of the core charge distribution:               -105.97386364366757
  Core Hamiltonian energy:                                     -4.14238307982944
  Hartree energy:                                              21.79360034145595
  Exchange-correlation energy:                                 -4.15458682100726

  GAPW| Exc from hard and soft atomic rho1:                    -6.57133197149763
  GAPW| local Eh = 1 center integrals:                         -1.34269053457189

  Total energy:                                              -100.39125569232488

  outer SCF iter =    1 RMS gradient =   0.73E-09 energy =       -100.3912556923
  outer SCF loop converged in   1 iterations or    9 steps


 !-----------------------------------------------------------------------------!
                     Mulliken Population Analysis

 #  Atom  Element  Kind  Atomic population                           Net charge
       1     F        1          9.389788                             -0.389788
       2     H        2          0.610212                              0.389788
 # Total charge                             10.000000                 -0.000000

 !-----------------------------------------------------------------------------!

 !-----------------------------------------------------------------------------!
                           Hirshfeld Charges

  #Atom  Element  Kind  Ref Charge     Population                    Net charge
      1       F      1       9.000          9.642                        -0.642
      2       H      2       1.000          0.357                         0.643

  Total Charge                                                            0.000
 !-----------------------------------------------------------------------------!

 ENERGY| Total FORCE_EVAL ( QS ) energy [a.u.]:             -100.391255692323796

 --------  Informations at step =     2 ------------
  Optimization Method        =                 BFGS
  Total Energy               =      -100.3912556923
  Real energy change         =        -0.0002655420
  Predicted change in energy =        -0.0003625715
  Scaling factor             =         0.0000000000
  Step size                  =         0.0207746039
  Trust radius               =         0.4724315332
  Decrease in energy         =                  YES
  Used time                  =              154.903

  Convergence check :
  Max. step size             =         0.0207746039
  Conv. limit for step size  =         0.0030000000
  Convergence in step size   =                   NO
  RMS step size              =         0.0119940637
  Conv. limit for RMS step   =         0.0015000000
  Convergence in RMS step    =                   NO
  Max. gradient              =         0.0052790512
  Conv. limit for gradients  =         0.0004500000
  Conv. for gradients        =                   NO
  RMS gradient               =         0.0030478498
  Conv. limit for RMS grad.  =         0.0003000000
  Conv. for gradients        =                   NO
 ---------------------------------------------------
 Estimated peak process memory after this step [MiB]                         561

 --------------------------
 OPTIMIZATION STEP:      3
 --------------------------

 Number of electrons:                                                         10
 Number of occupied orbitals:                                                  5
 Number of molecular orbitals:                                                 5

 Number of orbital functions:                                                 37
 Number of independent orbital functions:                                     37

 Parameters for the always stable predictor-corrector (ASPC) method:

  ASPC order: 1

  B(1) =   2.500000
  B(2) =  -2.000000
  B(3) =   0.500000

 Extrapolation method: ASPC


 SCF WAVEFUNCTION OPTIMIZATION

  ----------------------------------- OT ---------------------------------------
  Minimizer      : DIIS                : direct inversion
                                         in the iterative subspace
                                         using   7 DIIS vectors
                                         safer DIIS on
  Preconditioner : FULL_ALL            : diagonalization, state selective
  Precond_solver : DEFAULT
  stepsize       :    0.15000000                  energy_gap     :    0.08000000
  eps_taylor     :   0.10000E-15                  max_taylor     :             4
  ----------------------------------- OT ---------------------------------------

  Step     Update method      Time    Convergence         Total energy    Change
  ------------------------------------------------------------------------------
     1 OT DIIS     0.15E+00   22.1     0.00181498      -100.3912209422 -1.00E+02
     2 OT DIIS     0.15E+00   14.8     0.00083657      -100.3912694615 -4.85E-05
     3 OT DIIS     0.15E+00   14.7     0.00038215      -100.3912772774 -7.82E-06
     4 OT DIIS     0.15E+00   15.2     0.00003074      -100.3912793826 -2.11E-06
     5 OT DIIS     0.15E+00   15.2     0.00000520      -100.3912794024 -1.98E-08
     6 OT DIIS     0.15E+00   15.6     0.00000022      -100.3912794030 -5.99E-10
     7 OT DIIS     0.15E+00   14.6     0.00000002      -100.3912794030 -1.19E-11
     8 OT DIIS     0.15E+00   15.8     3.6299E-09      -100.3912794030  3.87E-12

  *** SCF run converged in     8 steps ***


  Electronic density on regular grids:         -7.2415115698        2.7584884302
  Core density on regular grids:               10.0000000000        0.0000000000
  Hard and soft densities (Lebedev):          -11.7899464765       -9.0314583403
  Total Rho_soft + Rho1_hard - Rho1_soft       -9.9999997060
  Total charge density (r-space):               0.0000002940
  Total Rho_soft + Rho0_soft (g-space):         0.0000000465

  Overlap energy of the core charge distribution:               0.00000001369437
  Self energy of the core charge distribution:               -105.97386364366757
  Core Hamiltonian energy:                                     -4.15113693959067
  Hartree energy:                                              21.80143809277802
  Exchange-correlation energy:                                 -4.15292391033462

  GAPW| Exc from hard and soft atomic rho1:                    -6.57049954510675
  GAPW| local Eh = 1 center integrals:                         -1.34429347078311

  Total energy:                                              -100.39127940301034

  outer SCF iter =    1 RMS gradient =   0.36E-08 energy =       -100.3912794030
  outer SCF loop converged in   1 iterations or    8 steps


 !-----------------------------------------------------------------------------!
                     Mulliken Population Analysis

 #  Atom  Element  Kind  Atomic population                           Net charge
       1     F        1          9.390183                             -0.390183
       2     H        2          0.609817                              0.390183
 # Total charge                             10.000000                 -0.000000

 !-----------------------------------------------------------------------------!

 !-----------------------------------------------------------------------------!
                           Hirshfeld Charges

  #Atom  Element  Kind  Ref Charge     Population                    Net charge
      1       F      1       9.000          9.643                        -0.643
      2       H      2       1.000          0.357                         0.643

  Total Charge                                                            0.000
 !-----------------------------------------------------------------------------!

 ENERGY| Total FORCE_EVAL ( QS ) energy [a.u.]:             -100.391279403010614

 --------  Informations at step =     3 ------------
  Optimization Method        =                 BFGS
  Total Energy               =      -100.3912794030
  Real energy change         =        -0.0000237107
  Predicted change in energy =        -0.0000254683
  Scaling factor             =         0.0000000000
  Step size                  =         0.0048245627
  Trust radius               =         0.4724315332
  Decrease in energy         =                  YES
  Used time                  =              140.230

  Convergence check :
  Max. step size             =         0.0048245627
  Conv. limit for step size  =         0.0030000000
  Convergence in step size   =                   NO
  RMS step size              =         0.0027853833
  Conv. limit for RMS step   =         0.0015000000
  Convergence in RMS step    =                   NO
  Max. gradient              =         0.0003295879
  Conv. limit for gradients  =         0.0004500000
  Conv. in gradients         =                  YES
  RMS gradient               =         0.0001902767
  Conv. limit for RMS grad.  =         0.0003000000
  Conv. in RMS gradients     =                  YES
 ---------------------------------------------------
 Estimated peak process memory after this step [MiB]                         562

 --------------------------
 OPTIMIZATION STEP:      4
 --------------------------

 Number of electrons:                                                         10
 Number of occupied orbitals:                                                  5
 Number of molecular orbitals:                                                 5

 Number of orbital functions:                                                 37
 Number of independent orbital functions:                                     37

 Parameters for the always stable predictor-corrector (ASPC) method:

  ASPC order: 2

  B(1) =   2.800000
  B(2) =  -2.800000
  B(3) =   1.200000
  B(4) =  -0.200000

 Extrapolation method: ASPC


 SCF WAVEFUNCTION OPTIMIZATION

  ----------------------------------- OT ---------------------------------------
  Minimizer      : DIIS                : direct inversion
                                         in the iterative subspace
                                         using   7 DIIS vectors
                                         safer DIIS on
  Preconditioner : FULL_ALL            : diagonalization, state selective
  Precond_solver : DEFAULT
  stepsize       :    0.15000000                  energy_gap     :    0.08000000
  eps_taylor     :   0.10000E-15                  max_taylor     :             4
  ----------------------------------- OT ---------------------------------------

  Step     Update method      Time    Convergence         Total energy    Change
  ------------------------------------------------------------------------------
     1 OT DIIS     0.15E+00   22.9     0.00276847      -100.3911417951 -1.00E+02
     2 OT DIIS     0.15E+00   14.6     0.00125285      -100.3912566401 -1.15E-04
     3 OT DIIS     0.15E+00   14.8     0.00058714      -100.3912745732 -1.79E-05
     4 OT DIIS     0.15E+00   14.8     0.00004799      -100.3912794480 -4.87E-06
     5 OT DIIS     0.15E+00   14.7     0.00000797      -100.3912794967 -4.86E-08
     6 OT DIIS     0.15E+00   15.3     0.00000034      -100.3912794981 -1.40E-09
     7 OT DIIS     0.15E+00   14.9     0.00000004      -100.3912794981 -7.36E-12
     8 OT DIIS     0.15E+00   14.7     7.2104E-09      -100.3912794981 -7.86E-12

  *** SCF run converged in     8 steps ***


  Electronic density on regular grids:         -7.2414722306        2.7585277694
  Core density on regular grids:               10.0000000000        0.0000000000
  Hard and soft densities (Lebedev):          -11.7916908469       -9.0331633737
  Total Rho_soft + Rho1_hard - Rho1_soft       -9.9999997038
  Total charge density (r-space):               0.0000002962
  Total Rho_soft + Rho0_soft (g-space):         0.0000000489

  Overlap energy of the core charge distribution:               0.00000001385988
  Self energy of the core charge distribution:               -105.97386364366757
  Core Hamiltonian energy:                                     -4.15062691394341
  Hartree energy:                                              21.80098031081100
  Exchange-correlation energy:                                 -4.15302126490128

  GAPW| Exc from hard and soft atomic rho1:                    -6.57054800989013
  GAPW| local Eh = 1 center integrals:                         -1.34419999037798

  Total energy:                                              -100.39127949810950

  outer SCF iter =    1 RMS gradient =   0.72E-08 energy =       -100.3912794981
  outer SCF loop converged in   1 iterations or    8 steps


 !-----------------------------------------------------------------------------!
                     Mulliken Population Analysis

 #  Atom  Element  Kind  Atomic population                           Net charge
       1     F        1          9.390161                             -0.390161
       2     H        2          0.609839                              0.390161
 # Total charge                             10.000000                 -0.000000

 !-----------------------------------------------------------------------------!

 !-----------------------------------------------------------------------------!
                           Hirshfeld Charges

  #Atom  Element  Kind  Ref Charge     Population                    Net charge
      1       F      1       9.000          9.643                        -0.643
      2       H      2       1.000          0.357                         0.643

  Total Charge                                                            0.000
 !-----------------------------------------------------------------------------!

 ENERGY| Total FORCE_EVAL ( QS ) energy [a.u.]:             -100.391279498112326

 --------  Informations at step =     4 ------------
  Optimization Method        =                 BFGS
  Total Energy               =      -100.3912794981
  Real energy change         =        -0.0000000951
  Predicted change in energy =        -0.0000000934
  Scaling factor             =         0.0000000000
  Step size                  =         0.0002836726
  Trust radius               =         0.4724315332
  Decrease in energy         =                  YES
  Used time                  =              140.487

  Convergence check :
  Max. step size             =         0.0002836726
  Conv. limit for step size  =         0.0030000000
  Convergence in step size   =                  YES
  RMS step size              =         0.0001636729
  Conv. limit for RMS step   =         0.0015000000
  Convergence in RMS step    =                  YES
  Max. gradient              =         0.0000057388
  Conv. limit for gradients  =         0.0004500000
  Conv. in gradients         =                  YES
  RMS gradient               =         0.0000033022
  Conv. limit for RMS grad.  =         0.0003000000
  Conv. in RMS gradients     =                  YES
 ---------------------------------------------------
 Estimated peak process memory after this step [MiB]                         563

 *******************************************************************************
 ***                    GEOMETRY OPTIMIZATION COMPLETED                      ***
 *******************************************************************************

                    Reevaluating energy at the minimum

 Number of electrons:                                                         10
 Number of occupied orbitals:                                                  5
 Number of molecular orbitals:                                                 5

 Number of orbital functions:                                                 37
 Number of independent orbital functions:                                     37

 Parameters for the always stable predictor-corrector (ASPC) method:

  ASPC order: 3

  B(1) =   3.000000
  B(2) =  -3.428571
  B(3) =   1.928571
  B(4) =  -0.571429
  B(5) =   0.071429

 Extrapolation method: ASPC


 SCF WAVEFUNCTION OPTIMIZATION

  ----------------------------------- OT ---------------------------------------
  Minimizer      : DIIS                : direct inversion
                                         in the iterative subspace
                                         using   7 DIIS vectors
                                         safer DIIS on
  Preconditioner : FULL_ALL            : diagonalization, state selective
  Precond_solver : DEFAULT
  stepsize       :    0.15000000                  energy_gap     :    0.08000000
  eps_taylor     :   0.10000E-15                  max_taylor     :             4
  ----------------------------------- OT ---------------------------------------

  Step     Update method      Time    Convergence         Total energy    Change
  ------------------------------------------------------------------------------
     1 OT DIIS     0.15E+00   22.9     0.00194849      -100.3912109553 -1.00E+02
     2 OT DIIS     0.15E+00   14.6     0.00087582      -100.3912682471 -5.73E-05
     3 OT DIIS     0.15E+00   14.8     0.00041572      -100.3912770632 -8.82E-06
     4 OT DIIS     0.15E+00   14.6     0.00003417      -100.3912794731 -2.41E-06
     5 OT DIIS     0.15E+00   14.9     0.00000570      -100.3912794974 -2.43E-08
     6 OT DIIS     0.15E+00   15.1     0.00000025      -100.3912794981 -7.27E-10
     7 OT DIIS     0.15E+00   13.7     0.00000003      -100.3912794981 -8.78E-12
     8 OT DIIS     0.15E+00   14.5     4.5794E-09      -100.3912794981 -5.64E-12

  *** SCF run converged in     8 steps ***


  Electronic density on regular grids:         -7.2414722292        2.7585277708
  Core density on regular grids:               10.0000000000        0.0000000000
  Hard and soft densities (Lebedev):          -11.7916908413       -9.0331633667
  Total Rho_soft + Rho1_hard - Rho1_soft       -9.9999997038
  Total charge density (r-space):               0.0000002962
  Total Rho_soft + Rho0_soft (g-space):         0.0000000489

  Overlap energy of the core charge distribution:               0.00000001385988
  Self energy of the core charge distribution:               -105.97386364366757
  Core Hamiltonian energy:                                     -4.15062685502824
  Hartree energy:                                              21.80098025591781
  Exchange-correlation energy:                                 -4.15302126930603

  GAPW| Exc from hard and soft atomic rho1:                    -6.57054801483072
  GAPW| local Eh = 1 center integrals:                         -1.34419998509509

  Total energy:                                              -100.39127949814996

  outer SCF iter =    1 RMS gradient =   0.46E-08 energy =       -100.3912794981
  outer SCF loop converged in   1 iterations or    8 steps


 !-----------------------------------------------------------------------------!
[...]
 flops     6 x     6 x     5                25560       0.0%    100.0%      0.0%
 flops     5 x     5 x     6                73800       0.0%    100.0%      0.0%
 flops     6 x     5 x     5                91800       0.0%    100.0%      0.0%
 flops     5 x     5 x     5                97000       0.0%    100.0%      0.0%
 flops     6 x     5 x     6               109800       0.0%    100.0%      0.0%
 flops     6 x    31 x     5               132060       0.0%    100.0%      0.0%
 flops     5 x     5 x    31               381300       0.0%    100.0%      0.0%
 flops    31 x     5 x     5               474300       0.0%    100.0%      0.0%
 flops    31 x     5 x     6               567300       0.0%    100.0%      0.0%
 flops     6 x     5 x    31               567300       0.0%    100.0%      0.0%
 flops    31 x    31 x     5               682310       0.0%    100.0%      0.0%
 flops    31 x     5 x    31              2931050       0.0%    100.0%      0.0%
 flops inhomo. stacks                           0       0.0%      0.0%      0.0%
 flops total                         6.133580E+06       0.0%    100.0%      0.0%
 flops max/rank                      5.207060E+06       0.0%    100.0%      0.0%
 matmuls inhomo. stacks                         0       0.0%      0.0%      0.0%
 matmuls total                               2925       0.0%    100.0%      0.0%
 number of processed stacks                  2925       0.0%    100.0%      0.0%
 average stack size                                     0.0       1.0       0.0
 marketing flops                     6.276740E+06
 -------------------------------------------------------------------------------
 # multiplications                           1322
 max memory usage/rank             589.844480E+06
 # max total images/rank                        1
 # max 3D layers                                1
 # MPI messages exchanged                 1184512
 MPI messages size (bytes):
  total size                        37.795520E+06
  min size                           0.000000E+00
  max size                           7.688000E+03
  average size                      31.908094E+00
 MPI breakdown and total messages size (bytes):
             size <=      128             1150968                        0
       128 < size <=     8192               33544                 37795520
      8192 < size <=    32768                   0                        0
     32768 < size <=   131072                   0                        0
    131072 < size <=  4194304                   0                        0
   4194304 < size <= 16777216                   0                        0
  16777216 < size                               0                        0
 -------------------------------------------------------------------------------
 -                                                                             -
 -                      DBCSR MESSAGE PASSING PERFORMANCE                      -
 -                                                                             -
 -------------------------------------------------------------------------------
 ROUTINE             CALLS      AVE VOLUME [Bytes]
 MP_Bcast               13                     12.
 MP_Allreduce         6972                      8.
 MP_Alltoall          5386                   5907.
 MP_ISend            42280                    171.
 MP_IRecv            42280                     73.
 -------------------------------------------------------------------------------

 -------------------------------------------------------------------------------
 -                                                                             -
 -                                DBM STATISTICS                               -
 -                                                                             -
 -------------------------------------------------------------------------------
    M  x    N  x    K                                          COUNT     PERCENT
 -------------------------------------------------------------------------------

 -------------------------------------------------------------------------------
 -                                                                             -
 -                                GRID STATISTICS                              -
 -                                                                             -
 -------------------------------------------------------------------------------
 LP    KERNEL             BACKEND                              COUNT     PERCENT
 2     collocate general  CPU                                   8320      21.92%
 2     integrate general  CPU                                   7680      20.23%
 1     collocate ortho    CPU                                   2706       7.13%
 1     integrate ortho    CPU                                   2645       6.97%
 0     collocate ortho    CPU                                   2442       6.43%
 0     integrate ortho    CPU                                   2220       5.85%
 2     integrate ortho    CPU                                   2185       5.76%
 2     collocate ortho    CPU                                   2178       5.74%
 3     integrate ortho    CPU                                   1605       4.23%
 3     collocate ortho    CPU                                   1584       4.17%
 4     integrate ortho    CPU                                    780       2.05%
 0     collocate general  CPU                                    768       2.02%
 0     integrate general  CPU                                    768       2.02%
 4     collocate ortho    CPU                                    726       1.91%
 3     integrate general  CPU                                    640       1.69%
 5     integrate ortho    CPU                                    295       0.78%
 5     collocate ortho    CPU                                    264       0.70%
 6     integrate ortho    CPU                                     80       0.21%
 6     collocate ortho    CPU                                     66       0.17%
 7     integrate ortho    CPU                                      5       0.01%
 -------------------------------------------------------------------------------

 MEMORY| Estimated peak process memory [MiB]                                 563

 -------------------------------------------------------------------------------
 ----                             MULTIGRID INFO                            ----
 -------------------------------------------------------------------------------
 count for grid        1:         168330          cutoff [a.u.]          600.00
 count for grid        2:          30518          cutoff [a.u.]          200.00
 count for grid        3:          21390          cutoff [a.u.]           66.67
 count for grid        4:           5180          cutoff [a.u.]           22.22
 count for grid        5:            320          cutoff [a.u.]            7.41
 total gridlevel count  :         225738

 -------------------------------------------------------------------------------
 -                                                                             -
 -                         MESSAGE PASSING PERFORMANCE                         -
 -                                                                             -
 -------------------------------------------------------------------------------

 ROUTINE             CALLS      AVE VOLUME [Bytes]
 MP_Group                6
 MP_Bcast              797                 444849.
 MP_Allreduce         2756                   7212.
 MP_Sync                46
 MP_Alltoall          1923                2931282.
 MP_SendRecv         16632                  49840.
 MP_ISendRecv        16380                  49840.
 MP_Wait             37401
 MP_comm_split          41
 MP_ISend            19656                 182961.
 MP_IRecv            19656                 182979.
 -------------------------------------------------------------------------------


 -------------------------------------------------------------------------------
 -                                                                             -
 -                           R E F E R E N C E S                               -
 -                                                                             -
 -------------------------------------------------------------------------------
 
 CP2K version 2023.2 (Development Version), the CP2K developers group (2023).
 CP2K is freely available from https://www.cp2k.org/ .

 Kuehne,Thomas D.; Iannuzzi,Marcella; Del Ben,Mauro;
 Rybkin,Vladimir V.; Seewald,Patrick; Stein,Frederick; Laino,Teodoro;
 Khaliullin,Rustam Z.; Schuett,Ole; Schiffmann,Florian; Golze,Dorothea;
 Wilhelm,Jan; Chulkov,Sergey; Bani-Hashemian,Mohammad Hossein;
 Weber,Valery; Borstnik,Urban; Taillefumier,Mathieu;
 Jakobovits,Alice Shoshana; Lazzaro,Alfio; Pabst,Hans; Mueller,Tiziano;
 Schade,Robert; Guidon,Manuel; Andermatt,Samuel; Holmberg,Nico;
 Schenter,Gregory K.; Hehn,Anna; Bussy,Augustin; Belleflamme,Fabian;
 Tabacchi,Gloria; Gloess,Andreas; Lass,Michael; Bethune,Iain;
 Mundy,Christopher J.; Plessl,Christian; Watkins,Matt;
 VandeVondele,Joost; Krack,Matthias; Hutter,Juerg. 
 The Journal of Chemical Physics, 152 (19), (2020). 
 CP2K: An electronic structure and molecular dynamics software package -
 Quickstep: Efficient and accurate electronic structure calculations.
 https://doi.org/10.1063/5.0007045

 Schuett, Ole; Messmer, Peter; Hutter, Juerg; VandeVondele, Joost. 
 Electronic Structure Calculations on Graphics Processing Units, John
 Wiley & Sons, Ltd, 173-190 (2016). 
 GPU-Accelerated Sparse Matrix-Matrix Multiplication for
 Linear Scaling Density Functional Theory.
 https://doi.org/10.1002/9781118670712.ch8

 Heinecke, A; Henry, G; Hutchinson, M; Pabst, H. 
 Proceedings of Intl. Supercomputing Conference, 981-991 (2016). 
 LIBXSMM: Accelerating Small Matrix Multiplications
 by Runtime Code Generation.
 https://doi.org/10.1109/SC.2016.83

 Borstnik, U; VandeVondele, J; Weber, V; Hutter, J. 
 PARALLEL COMPUTING, 40 (5-6), 47-58 (2014). 
 Sparse matrix multiplication: The distributed block-compressed sparse
 row library.
 https://doi.org/10.1016/j.parco.2014.03.012

 Hutter, J; Iannuzzi, M; Schiffmann, F; VandeVondele, J. 
 WIREs Comput Mol Sci., 4 (1), 15-25 (2014). 
 CP2K: atomistic simulations of condensed matter systems.
 https://doi.org/10.1002/wcms.1159

 Kuhne, TD; Krack, M; Mohamed, FR; Parrinello, M. 
 PHYSICAL REVIEW LETTERS, 98 (6), 066401 (2007). 
 Efficient and accurate Car-Parrinello-like approach to
 Born-Oppenheimer molecular dynamics.
 https://doi.org/10.1103/PhysRevLett.98.066401

 Frigo, M; Johnson, SG. 
 PROCEEDINGS OF THE IEEE, 93 (2), 216-231 (2005). 
 The design and implementation of FFTW3.
 https://doi.org/10.1109/JPROC.2004.840301

 Kolafa, J. 
 JOURNAL OF COMPUTATIONAL CHEMISTRY, 25 (3), 335-342 (2004). 
 Time-reversible always stable predictor-corrector method for
 molecular dynamics of polarizable molecules.
 https://doi.org/10.1002/jcc.10385

 VandeVondele, J; Hutter, J. 
 JOURNAL OF CHEMICAL PHYSICS, 118 (10), 4365-4369 (2003). 
 An efficient orbital transformation method for electronic structure
 calculations.
 https://doi.org/10.1063/1.1543154

 Lippert, G; Hutter, J; Parrinello, M. 
 THEORETICAL CHEMISTRY ACCOUNTS, 103 (2), 124-140 (1999). 
 The Gaussian and augmented-plane-wave density functional method for ab
 initio molecular dynamics simulations.
 https://doi.org/10.1007/s002140050523

 Krack, M; Parrinello, M. 
 PHYSICAL CHEMISTRY CHEMICAL PHYSICS, 2 (10), 2105-2112 (2000). 
 All-electron ab-initio molecular dynamics.
 https://doi.org/10.1039/b001167n

 Martyna, GJ; Tuckerman, ME. 
 JOURNAL OF CHEMICAL PHYSICS, 110 (6), 2810-2821 (1999). 
 A reciprocal space based method for treating long range interactions in
 ab initio and force-field-based calculations in clusters.
 https://doi.org/10.1063/1.477923

 Perdew, JP; Burke, K; Ernzerhof, M. 
 PHYSICAL REVIEW LETTERS, 77 (18), 3865-3868 (1996). 
 Generalized gradient approximation made simple.
 https://doi.org/10.1103/PhysRevLett.77.3865


 -------------------------------------------------------------------------------
 -                                                                             -
 -                                T I M I N G                                  -
 -                                                                             -
 -------------------------------------------------------------------------------
 SUBROUTINE                       CALLS  ASD         SELF TIME        TOTAL TIME
                                MAXIMUM       AVERAGE  MAXIMUM  AVERAGE  MAXIMUM
 CP2K                                 1  1.0    0.110    0.134 1057.868 1057.871
 cp_geo_opt                           1  2.0    0.002    0.011 1056.273 1056.284
 geoopt_bfgs                          1  3.0    0.009    0.018 1056.272 1056.284
 cp_eval_at                           6  4.0    0.001    0.001 1055.794 1055.840
 qs_energies                          6  5.8    0.008    0.023 1040.009 1040.164
 scf_env_do_scf                       6  6.8    0.000    0.013  996.092  996.130
 qs_forces                            5  5.0    0.013    0.046  920.616  920.649
 scf_env_do_scf_inner_loop           60  7.9    0.004    0.018  914.071  914.120
 qs_scf_new_mos                      60  8.9    0.000    0.000  688.955  689.490
 qs_scf_loop_do_ot                   60  9.9    0.000    0.000  688.954  689.490
 dbcsr_multiply_generic            1322 13.9    0.145    0.239  663.356  667.391
 ot_scf_mini                         60 10.9    0.001    0.011  655.402  655.887
 ot_mini                             60 11.9    0.002    0.011  464.418  465.090
 qs_ot_get_derivative                60 12.9    0.001    0.001  378.229  378.889
 multiply_cannon                   1322 14.9    3.825    4.278  268.903  278.285
 mp_sum_l                          6697 14.1  241.261  249.947  241.261  249.947
 multiply_cannon_loop              1322 15.9    0.435    0.596  223.526  232.948
 multiply_cannon_multrec          10576 16.9  182.502  209.589  182.507  209.594
 rebuild_ks_matrix                   65  9.6    0.000    0.000  179.295  180.199
 qs_ks_build_kohn_sham_matrix        65 10.6    0.016    0.046  179.295  180.199
 qs_ot_get_derivative_taylor         43 13.8    0.001    0.011  172.337  172.939
 qs_ks_update_qs_env                 66  8.9    0.000    0.000  167.215  168.067
 qs_ot_get_p                         66 11.7    0.000    0.000  112.167  112.708
 pw_transfer                       1502 13.8    0.086    0.127  110.120  111.221
 fft_wrap_pw1pw2                   1307 14.9    0.007    0.017  109.597  110.654
 fft3d_ps                          1307 16.9    4.726    5.221  107.813  108.915
 make_m2s                          2644 14.9    0.033    0.057   98.327  104.752
 make_images                       2644 15.9    7.597    8.443   97.311  102.502
 qs_ot_get_derivative_diag           17 14.0    0.000    0.000   91.577   91.878
 make_images_sizes                 2644 16.9    0.004    0.014   89.034   91.862
 mp_alltoall_i44                   2644 17.9   89.030   91.859   89.030   91.859
 mp_waitall_1                    123505 17.8   56.179   83.642   56.179   83.642
 ot_diis_step                        60 12.9    0.005    0.030   80.002   80.198
 init_scf_loop                        6  7.8    0.000    0.000   79.950   80.065
 qs_rho_update_rho_low               66  8.9    0.002    0.012   77.520   79.843
 mp_alltoall_z22v                  1307 18.9   69.823   71.448   69.823   71.448
 apply_preconditioner_dbcsr          66 13.9    0.000    0.000   67.363   68.205
 apply_all                           66 14.9    0.000    0.000   67.363   68.205
 calculate_rho_elec                  66  9.9    0.037    0.051   64.857   66.426
 fft_wrap_pw1pw2_600                782 16.4    0.769    1.052   61.809   62.920
 qs_ot_get_orbitals                  60 11.9    0.000    0.000   61.827   62.380
 sum_up_and_integrate                65 11.6    0.001    0.001   57.615   59.125
 integrate_v_rspace                  65 12.6    0.002    0.017   57.562   59.077
 mp_sum_d                          1967 10.8   54.450   57.423   54.450   57.423
 density_rs2pw                       66 10.9    0.004    0.024   55.695   56.295
 potential_pw2rs                     65 13.6    0.005    0.015   54.508   54.758
 prepare_preconditioner               6  8.8    0.000    0.000   52.234   52.416
 multiply_cannon_metrocomm1       10576 16.9    0.029    0.056   25.098   50.859
 mp_sum_b                          2298 15.2   49.197   50.595   49.197   50.595
 dbcsr_complete_redistribute        220 13.2    0.010    0.030   43.939   45.462
 copy_dbcsr_to_fm                   113 12.1    0.002    0.012   43.560   44.152
 mp_allgather_i34                  1322 15.9   41.053   43.125   41.053   43.125
 qs_vxc_create                       65 11.6    0.004    0.014   39.731   39.902
 xc_vxc_pw_create                    65 12.6    0.188    0.278   39.727   39.891
 calculate_dm_sparse                 66 10.8    0.000    0.000   37.773   38.210
 transfer_pw2rs                     396 14.3    0.002    0.013   36.214   36.853
 make_preconditioner                  6  9.8    0.000    0.000   34.690   34.886
 mp_alltoall_d11v                  1408 14.8   31.468   34.004   31.468   34.004
 x_to_yz                            456 18.3    1.539    1.722   33.307   33.882
 qs_ot_p2m_diag                      18 13.0    0.002    0.002   33.202   33.581
 yz_to_x                            458 18.2    0.218    0.258   32.282   33.431
 init_scf_run                         6  6.8    0.003    0.022   32.966   33.034
 scf_env_initial_rho_setup            6  7.8    0.000    0.011   32.963   33.023
 xc_pw_derive                       390 14.6    0.002    0.013   30.933   31.820
 transfer_rs2pw                     401 12.2    0.004    0.014   30.203   30.818
 mp_alltoall_z11v                   393 18.3   29.321   30.192   29.321   30.192
 cp_dbcsr_sm_fm_multiply             30 10.9    0.001    0.010   29.103   29.521
 subspace_eigenvalues_ks_dbcsr       12 10.3    0.000    0.000   28.148   28.321
 dbcsr_dot_sd                       665 13.3    0.002    0.016   26.858   28.091
 mp_waitany                       19656 15.1   25.689   27.346   25.689   27.346
 multiply_cannon_metrocomm3       10576 16.9    0.029    0.050   15.386   26.614
 cp_dbcsr_syevd                      30 12.9    0.003    0.012   25.360   25.624
 wfi_extrapolate                      6  8.8    0.001    0.019   25.429   25.505
 mp_alltoall_i22                    424 14.7   21.920   23.530   21.920   23.530
 mp_sum_dm                          590  9.7   21.642   23.343   21.642   23.343
 dbcsr_new_transposed               567 14.9    0.005    0.024   21.443   22.355
 arnoldi_extremal                    66 12.7    0.001    0.014   21.526   22.175
 arnoldi_normal_ev                   66 13.7    0.002    0.023   21.525   22.174
 xc_pw_divergence                    65 13.6    0.001    0.001   20.771   21.595
 integrate_vhg0_rspace               65 11.6    0.041    0.069   20.012   21.456
 transfer_pw2rs_600                 136 14.5    3.604    3.991   20.759   21.243
 -------------------------------------------------------------------------------

 The number of warnings for this run is : 0
 
 -------------------------------------------------------------------------------
  **** **** ******  **  PROGRAM ENDED AT                 2023-12-05 17:42:52.584
 ***** ** ***  *** **   PROGRAM RAN ON                               nesh-clk496
 **    ****   ******    PROGRAM RAN BY                                  suphc355
 ***** **    ** ** **   PROGRAM PROCESS ID                               2534600
  **** **  *******  **  PROGRAM STOPPED IN /gxfs_work/cau/suphc355/homologes/HX/
                                           opt/F
