       2
 i =        8, E =       -12.0410005853
  I         3.1842678918        4.0000000003        4.0000000000
  H         4.8157276259        3.9999999997        4.0000000000
