 DBCSR| CPU Multiplication driver                                           XSMM (U)
 DBCSR| Multrec recursion limit                                              512 (U)
 DBCSR| Multiplication stack size                                           1000 (D)
 DBCSR| Maximum elements for images                                    UNLIMITED (U)
 DBCSR| Multiplicative factor virtual images                                   1 (U)
 DBCSR| Use multiplication densification                                       T (D)
 DBCSR| Multiplication size stacks                                             3 (U)
 DBCSR| Use memory pool for CPU allocation                                     F (U)
 DBCSR| Number of 3D layers                                               SINGLE (U)
 DBCSR| Use MPI memory allocation                                              F (U)
 DBCSR| Use RMA algorithm                                                      F (U)
 DBCSR| Use Communication thread                                               T (U)
 DBCSR| Communication thread load                                             87 (D)
 DBCSR| MPI: My process id                                                     0
 DBCSR| MPI: Number of processes                                             128
 DBCSR| OMP: Current number of threads                                         1
 DBCSR| OMP: Max number of threads                                             1
 DBCSR| Split modifier for TAS multiplication algorithm                  1.0E+00 (U)


  **** **** ******  **  PROGRAM STARTED AT               2024-02-01 09:11:49.320
 ***** ** ***  *** **   PROGRAM STARTED ON                           nesh-srp151
 **    ****   ******    PROGRAM STARTED BY                              suphc355
 ***** **    ** ** **   PROGRAM PROCESS ID                                508865
  **** **  *******  **  PROGRAM STARTED IN /gxfs_work/cau/suphc355/homologes/HX/
                                           PP/Cl

 CP2K| version string:                 CP2K version 2024.1 (Development Version)
 CP2K| source code revision number:                                  git:b6f9133
 CP2K| cp2kflags: omp libint fftw3 libxc libgrpp parallel mpi_f08 scalapack cosm
 CP2K|            a xsmm spglib mkl
 CP2K| is freely available from                            https://www.cp2k.org/
 CP2K| Program compiled at                          Fr 26. Jan 09:14:30 CET 2024
 CP2K| Program compiled on                                           nesh-login3
 CP2K| Program compiled for                                                local
 CP2K| Data directory path            /gxfs_home/cau/suphc355/software/cp2k/data
 CP2K| Input file name                                               PP_quad.inp
 
 GLOBAL| Force Environment number                                              1
 GLOBAL| Basis set file name                                 ../../../basis_quad
 GLOBAL| Potential file name                                  GTH_SOC_POTENTIALS
 GLOBAL| MM Potential file name                                     MM_POTENTIAL
 GLOBAL| Coordinate file name                                            opt.xyz
 GLOBAL| Method name                                                        CP2K
 GLOBAL| Project name                                                HCl_PP_quad
 GLOBAL| Run type                                                         ENERGY
 GLOBAL| FFT library                                                       FFTW3
 GLOBAL| Diagonalization library                                       ScaLAPACK
 GLOBAL| DGEMM library                                                      BLAS
 GLOBAL| Orthonormality check for eigenvectors                          DISABLED
 GLOBAL| Matrix multiplication library                                     COSMA
 GLOBAL| All-to-all communication in single precision                          F
 GLOBAL| FFTs using library dependent lengths                                  F
 GLOBAL| Grid backend                                                       AUTO
 GLOBAL| Global print level                                               MEDIUM
 GLOBAL| MPI I/O enabled                                                       T
 GLOBAL| Total number of message passing processes                           128
 GLOBAL| Number of threads for this process                                    1
 GLOBAL| This output is from process                                           0
 GLOBAL| Stack size for threads created by OpenMP (OMP_STACKSIZE)        default
 GLOBAL| CPU model name                              Intel(R) Xeon(R) Gold 6426Y
 GLOBAL| CPUID                                                              1003

 MEMORY| system memory details [Kb]
 MEMORY|                        rank 0           min           max       average
 MEMORY| MemTotal            263786136     263786136     263786136     263786136
 MEMORY| MemFree             243090104     243090104     243458072     243344812
 MEMORY| Buffers                938252        824552        938252        861505
 MEMORY| Cached                 748764        644380        748764        677240
 MEMORY| Slab                   609944        554248        609944        573549
 MEMORY| SReclaimable           152980        130452        152980        136583
 MEMORY| MemLikelyFree       244930100     244930100     245063140     245020140


 *** Fundamental physical constants (SI units) ***

 *** Literature: B. J. Mohr and B. N. Taylor,
 ***             CODATA recommended values of the fundamental physical
 ***             constants: 2006, Web Version 5.1
 ***             http://physics.nist.gov/constants

 Speed of light in vacuum [m/s]                             2.99792458000000E+08
 Magnetic constant or permeability of vacuum [N/A**2]       1.25663706143592E-06
 Electric constant or permittivity of vacuum [F/m]          8.85418781762039E-12
 Planck constant (h) [J*s]                                  6.62606896000000E-34
 Planck constant (h-bar) [J*s]                              1.05457162825177E-34
 Elementary charge [C]                                      1.60217648700000E-19
 Electron mass [kg]                                         9.10938215000000E-31
 Electron g factor [ ]                                     -2.00231930436220E+00
 Proton mass [kg]                                           1.67262163700000E-27
 Fine-structure constant                                    7.29735253760000E-03
 Rydberg constant [1/m]                                     1.09737315685270E+07
 Avogadro constant [1/mol]                                  6.02214179000000E+23
 Boltzmann constant [J/K]                                   1.38065040000000E-23
 Atomic mass unit [kg]                                      1.66053878200000E-27
 Bohr radius [m]                                            5.29177208590000E-11

 *** Conversion factors ***

 [u] -> [a.u.]                                              1.82288848426455E+03
 [Angstrom] -> [Bohr] = [a.u.]                              1.88972613288564E+00
 [a.u.] = [Bohr] -> [Angstrom]                              5.29177208590000E-01
 [a.u.] -> [s]                                              2.41888432650478E-17
 [a.u.] -> [fs]                                             2.41888432650478E-02
 [a.u.] -> [J]                                              4.35974393937059E-18
 [a.u.] -> [N]                                              8.23872205491840E-08
 [a.u.] -> [K]                                              3.15774647902944E+05
 [a.u.] -> [kJ/mol]                                         2.62549961709828E+03
 [a.u.] -> [kcal/mol]                                       6.27509468713739E+02
 [a.u.] -> [Pa]                                             2.94210107994716E+13
 [a.u.] -> [bar]                                            2.94210107994716E+08
 [a.u.] -> [atm]                                            2.90362800883016E+08
 [a.u.] -> [eV]                                             2.72113838565563E+01
 [a.u.] -> [Hz]                                             6.57968392072181E+15
 [a.u.] -> [1/cm] (wave numbers)                            2.19474631370540E+05
 [a.u./Bohr**2] -> [1/cm]                                   5.14048714338585E+03
 

 CELL_TOP| Volume [angstrom^3]:                                      8000.000000
 CELL_TOP| Vector a [angstrom    20.000     0.000     0.000   |a| =    20.000000
 CELL_TOP| Vector b [angstrom     0.000    20.000     0.000   |b| =    20.000000
 CELL_TOP| Vector c [angstrom     0.000     0.000    20.000   |c| =    20.000000
 CELL_TOP| Angle (b,c), alpha [degree]:                                90.000000
 CELL_TOP| Angle (a,c), beta  [degree]:                                90.000000
 CELL_TOP| Angle (a,b), gamma [degree]:                                90.000000
 CELL_TOP| Numerically orthorhombic:                                         YES
 CELL_TOP| Periodicity                                                      NONE
 
 GENERATE|  Preliminary Number of Bonds generated:                             0
 GENERATE|  Achieved consistency in connectivity generation.

 CELL| Volume [angstrom^3]:                                          8000.000000
 CELL| Vector a [angstrom]:      20.000     0.000     0.000   |a| =    20.000000
 CELL| Vector b [angstrom]:       0.000    20.000     0.000   |b| =    20.000000
 CELL| Vector c [angstrom]:       0.000     0.000    20.000   |c| =    20.000000
 CELL| Angle (b,c), alpha [degree]:                                    90.000000
 CELL| Angle (a,c), beta  [degree]:                                    90.000000
 CELL| Angle (a,b), gamma [degree]:                                    90.000000
 CELL| Numerically orthorhombic:                                             YES
 CELL| Periodicity                                                          NONE

 CELL_REF| Volume [angstrom^3]:                                      8000.000000
 CELL_REF| Vector a [angstrom    20.000     0.000     0.000   |a| =    20.000000
 CELL_REF| Vector b [angstrom     0.000    20.000     0.000   |b| =    20.000000
 CELL_REF| Vector c [angstrom     0.000     0.000    20.000   |c| =    20.000000
 CELL_REF| Angle (b,c), alpha [degree]:                                90.000000
 CELL_REF| Angle (a,c), beta  [degree]:                                90.000000
 CELL_REF| Angle (a,b), gamma [degree]:                                90.000000
 CELL_REF| Numerically orthorhombic:                                         YES
 CELL_REF| Periodicity                                                      NONE

 *******************************************************************************
 *******************************************************************************
 **                                                                           **
 **     #####                         ##              ##                      **
 **    ##   ##            ##          ##              ##                      **
 **   ##     ##                       ##            ######                    **
 **   ##     ##  ##   ##  ##   #####  ##  ##   ####   ##    #####    #####    **
 **   ##     ##  ##   ##  ##  ##      ## ##   ##      ##   ##   ##  ##   ##   **
 **   ##  ## ##  ##   ##  ##  ##      ####     ###    ##   ######   ######    **
 **    ##  ###   ##   ##  ##  ##      ## ##      ##   ##   ##       ##        **
 **     #######   #####   ##   #####  ##  ##  ####    ##    #####   ##        **
 **           ##                                                    ##        **
 **                                                                           **
 **                                                ... make the atoms dance   **
 **                                                                           **
 **            Copyright (C) by CP2K developers group (2000-2024)             **
 **                      J. Chem. Phys. 152, 194103 (2020)                    **
 **                                                                           **
 *******************************************************************************

 DFT| Spin restricted Kohn-Sham (RKS) calculation                            RKS
 DFT| Multiplicity                                                             1
 DFT| Number of spin states                                                    1
 DFT| Charge                                                                   0
 DFT| Self-interaction correction (SIC)                                       NO
 DFT| Cutoffs: density                                              1.000000E-10
 DFT|          gradient                                             1.000000E-10
 DFT|          tau                                                  1.000000E-10
 DFT|          cutoff_smoothing_range                               0.000000E+00
 DFT| XC density smoothing                                                  NONE
 DFT| XC derivatives                                                          PW

 FUNCTIONAL| PBE:
 FUNCTIONAL| J.P.Perdew, K.Burke, M.Ernzerhof, Phys. Rev. Letter, vol. 77, n 18,
 FUNCTIONAL|  pp. 3865-3868, (1996)sx=0.750sc=1.000{spin unpolarized}           


 QS| Method:                                                                 GPW
 QS| Density plane wave grid type                        NON-SPHERICAL FULLSPACE
 QS| Number of grid levels:                                                    5
 QS| Density cutoff [a.u.]:                                                600.0
 QS| Multi grid cutoff [a.u.]: 1) grid level                               600.0
 QS|                           2) grid level                               200.0
 QS|                           3) grid level                                66.7
 QS|                           4) grid level                                22.2
 QS|                           5) grid level                                 7.4
 QS| Grid level progression factor:                                          3.0
 QS| Relative density cutoff [a.u.]:                                        40.0
 QS| Interaction thresholds: eps_pgf_orb:                                1.0E-30
 QS|                         eps_filter_matrix:                          0.0E+00
 QS|                         eps_core_charge:                            1.0E-17
 QS|                         eps_rho_gspace:                             1.0E-15
 QS|                         eps_rho_rspace:                             1.0E-15
 QS|                         eps_gvg_rspace:                             3.2E-08
 QS|                         eps_ppl:                                    1.0E-02
 QS|                         eps_ppnl:                                   3.2E-10


 ATOMIC KIND INFORMATION

  1. Atomic kind: Cl                                    Number of atoms:       1

     Orbital Basis Set                                             aug-QZV2P-GTH

       Number of orbital shell sets:                                           4
       Number of orbital shells:                                              12
       Number of primitive Cartesian functions:                               10
       Number of Cartesian basis functions:                                   32
       Number of spherical basis functions:                                   30
       Norm type:                                                              2

       Normalised Cartesian orbitals:

                        Set   Shell   Orbital            Exponent    Coefficient

                          1       1    3s                4.739069       0.105336
                                                         2.566451      -0.516383
                                                         1.116824       0.031344
                                                         0.500732       0.266884
                                                         0.209222       0.105940
                                                         0.081808       0.005806

                          1       2    4s                4.739069       0.000000
                                                         2.566451       0.000000
                                                         1.116824       0.000000
                                                         0.500732       0.424242
                                                         0.209222       0.000000
                                                         0.081808       0.000000

                          1       3    5s                4.739069       0.000000
                                                         2.566451       0.000000
                                                         1.116824       0.000000
                                                         0.500732       0.000000
                                                         0.209222       0.220478
                                                         0.081808       0.000000

                          1       4    6s                4.739069       0.000000
                                                         2.566451       0.000000
                                                         1.116824       0.000000
                                                         0.500732       0.000000
                                                         0.209222       0.000000
                                                         0.081808       0.109020

                          1       5    4px               4.739069      -0.183676
                                                         2.566451      -0.198587
                                                         1.116824       0.316403
                                                         0.500732       0.255952
                                                         0.209222       0.082845
                                                         0.081808       0.009005
                          1       5    4py               4.739069      -0.183676
                                                         2.566451      -0.198587
                                                         1.116824       0.316403
                                                         0.500732       0.255952
                                                         0.209222       0.082845
                                                         0.081808       0.009005
                          1       5    4pz               4.739069      -0.183676
                                                         2.566451      -0.198587
                                                         1.116824       0.316403
                                                         0.500732       0.255952
                                                         0.209222       0.082845
                                                         0.081808       0.009005

                          1       6    5px               4.739069       0.000000
                                                         2.566451       0.000000
                                                         1.116824       0.000000
                                                         0.500732       0.600408
                                                         0.209222       0.000000
                                                         0.081808       0.000000
                          1       6    5py               4.739069       0.000000
                                                         2.566451       0.000000
                                                         1.116824       0.000000
                                                         0.500732       0.600408
                                                         0.209222       0.000000
                                                         0.081808       0.000000
                          1       6    5pz               4.739069       0.000000
                                                         2.566451       0.000000
                                                         1.116824       0.000000
                                                         0.500732       0.600408
                                                         0.209222       0.000000
                                                         0.081808       0.000000

                          1       7    6px               4.739069       0.000000
                                                         2.566451       0.000000
                                                         1.116824       0.000000
                                                         0.500732       0.000000
                                                         0.209222       0.201697
                                                         0.081808       0.000000
                          1       7    6py               4.739069       0.000000
                                                         2.566451       0.000000
                                                         1.116824       0.000000
                                                         0.500732       0.000000
                                                         0.209222       0.201697
                                                         0.081808       0.000000
                          1       7    6pz               4.739069       0.000000
                                                         2.566451       0.000000
                                                         1.116824       0.000000
                                                         0.500732       0.000000
                                                         0.209222       0.201697
                                                         0.081808       0.000000

                          1       8    7px               4.739069       0.000000
                                                         2.566451       0.000000
                                                         1.116824       0.000000
                                                         0.500732       0.000000
                                                         0.209222       0.000000
                                                         0.081808       0.062364
                          1       8    7py               4.739069       0.000000
                                                         2.566451       0.000000
                                                         1.116824       0.000000
                                                         0.500732       0.000000
                                                         0.209222       0.000000
                                                         0.081808       0.062364
                          1       8    7pz               4.739069       0.000000
                                                         2.566451       0.000000
                                                         1.116824       0.000000
                                                         0.500732       0.000000
                                                         0.209222       0.000000
                                                         0.081808       0.062364

                          2       1    3dx2              1.046000       1.780696
                                                         0.344000       0.000000
                          2       1    3dxy              1.046000       3.084257
                                                         0.344000       0.000000
                          2       1    3dxz              1.046000       3.084257
                                                         0.344000       0.000000
                          2       1    3dy2              1.046000       1.780696
                                                         0.344000       0.000000
                          2       1    3dyz              1.046000       3.084257
                                                         0.344000       0.000000
                          2       1    3dz2              1.046000       1.780696
                                                         0.344000       0.000000

                          2       2    4dx2              1.046000       0.000000
                                                         0.344000       0.254324
                          2       2    4dxy              1.046000       0.000000
                                                         0.344000       0.440501
                          2       2    4dxz              1.046000       0.000000
                                                         0.344000       0.440501
                          2       2    4dy2              1.046000       0.000000
                                                         0.344000       0.254324
                          2       2    4dyz              1.046000       0.000000
                                                         0.344000       0.440501
                          2       2    4dz2              1.046000       0.000000
                                                         0.344000       0.254324

                          3       1    3s                0.051900       0.077497

                          4       1    3px               0.037600       0.023601
                          4       1    3py               0.037600       0.023601
                          4       1    3pz               0.037600       0.023601

       Atomic covalent radius [Angstrom]:                                  0.990

       Atomic van der Waals radius [Angstrom]:                             1.750

     GTH Potential information for                                       GTH-PBE

       Description:                       Goedecker-Teter-Hutter pseudopotential
                                           Goedecker et al., PRB 54, 1703 (1996)
                                          Hartwigsen et al., PRB 58, 3641 (1998)
                                                      Krack, TCA 114, 145 (2005)

       Gaussian exponent of the core charge distribution:               2.974420
       Electronic configuration (s p d ...):                               2   5

       Parameters of the local part of the GTH pseudopotential:

                          rloc        C1          C2          C3          C4
                        0.410000   -6.392082

       Parameters of the non-local part of the GTH (SOC) pseudopotential:

                   l      r(l)      h(i,j,l)
                                    k(i,j,l)
                   0    0.339539   15.218990   -4.934523
                                   -4.934523    6.370442
                   1    0.378474    4.338775    0.000000
                                    0.000000    0.000000
                                    0.045289   -0.032578
                                   -0.032578    0.038547

  2. Atomic kind: H                                     Number of atoms:       1

     Orbital Basis Set                                             aug-QZV2P-GTH

       Number of orbital shell sets:                                           4
       Number of orbital shells:                                               8
       Number of primitive Cartesian functions:                               10
       Number of Cartesian basis functions:                                   14
       Number of spherical basis functions:                                   14
       Norm type:                                                              2

       Normalised Cartesian orbitals:

                        Set   Shell   Orbital            Exponent    Coefficient

                          1       1    1s               12.535095       0.054279
                                                         4.549154       0.076380
                                                         1.668519       0.105441
                                                         0.652385       0.119104
                                                         0.273301       0.109581
                                                         0.139061       0.053929

                          1       2    2s               12.535095       0.000000
                                                         4.549154       0.000000
                                                         1.668519       0.000000
                                                         0.652385       0.517354
                                                         0.273301       0.000000
                                                         0.139061       0.000000

                          1       3    3s               12.535095       0.000000
                                                         4.549154       0.000000
                                                         1.668519       0.000000
                                                         0.652385       0.000000
                                                         0.273301       0.269396
                                                         0.139061       0.000000

                          1       4    4s               12.535095       0.000000
                                                         4.549154       0.000000
                                                         1.668519       0.000000
                                                         0.652385       0.000000
                                                         0.273301       0.000000
                                                         0.139061       0.162298

                          2       1    2px               1.407000       2.184277
                                                         0.388000       0.000000
                          2       1    2py               1.407000       2.184277
                                                         0.388000       0.000000
                          2       1    2pz               1.407000       2.184277
                                                         0.388000       0.000000

                          2       2    3px               1.407000       0.000000
                                                         0.388000       0.436495
                          2       2    3py               1.407000       0.000000
                                                         0.388000       0.436495
                          2       2    3pz               1.407000       0.000000
                                                         0.388000       0.436495

                          3       1    5s                0.023630       0.042954

                          4       1    4px               0.084800       0.065228
                          4       1    4py               0.084800       0.065228
                          4       1    4pz               0.084800       0.065228

       Atomic covalent radius [Angstrom]:                                  0.320

       Atomic van der Waals radius [Angstrom]:                             1.090

     GTH Potential information for                                       GTH-PBE

       Description:                       Goedecker-Teter-Hutter pseudopotential
                                           Goedecker et al., PRB 54, 1703 (1996)
                                          Hartwigsen et al., PRB 58, 3641 (1998)
                                                      Krack, TCA 114, 145 (2005)

       Gaussian exponent of the core charge distribution:              12.500000
       Electronic configuration (s p d ...):                                   1

       Parameters of the local part of the GTH pseudopotential:

                          rloc        C1          C2          C3          C4
                        0.200000   -4.178900    0.724463


 MOLECULE KIND INFORMATION


 All atoms are their own molecule, skipping detailed information


 TOTAL NUMBERS AND MAXIMUM NUMBERS

  Total number of            - Atomic kinds:                                   2
                             - Atoms:                                          2
                             - Shell sets:                                     8
                             - Shells:                                        20
                             - Primitive Cartesian functions:                 20
                             - Cartesian basis functions:                     46
                             - Spherical basis functions:                     44

  Maximum angular momentum of- Orbital basis functions:                        2
                             - Local part of the GTH pseudopotential:          2
                             - Non-local part of the GTH pseudopotential:      3


 MODULE QUICKSTEP: ATOMIC COORDINATES IN ANGSTROM

   Atom Kind Element         X             Y             Z       Z(eff)     Mass
      1    1 Cl   17      9.355419     10.000000     10.000000   7.0000  35.4530
      2    2 H     1     10.644581     10.000000     10.000000   1.0000   1.0079



 SCF PARAMETERS         Density guess:                                    ATOMIC
                        --------------------------------------------------------
                        max_scf:                                              20
                        max_scf_history:                                       0
                        max_diis:                                              4
                        --------------------------------------------------------
                        eps_scf:                                        1.00E-07
                        eps_scf_history:                                0.00E+00
                        eps_diis:                                       1.00E-01
                        eps_eigval:                                     1.00E-05
                        --------------------------------------------------------
                        level_shift [a.u.]:                             0.000000
                        --------------------------------------------------------
                        Outer loop SCF in use 
                        No variables optimised in outer loop
                        eps_scf                                         1.00E-07
                        max_scf                                               50
                        No outer loop optimization
                        step_size                                       5.00E-01

 PW_GRID| Information for grid number                                          1
 PW_GRID| Grid distributed over                                   128 processors
 PW_GRID| Real space group dimensions                                   128    1
 PW_GRID| the grid is blocked:                                                NO
 PW_GRID| Cutoff [a.u.]                                                   1200.0
 PW_GRID| spherical cutoff:                                                   NO
 PW_GRID|   Bounds   1           -300     299                Points:         600
 PW_GRID|   Bounds   2           -300     299                Points:         600
 PW_GRID|   Bounds   3           -300     299                Points:         600
 PW_GRID| Volume element (a.u.^3)  0.2499E-03     Volume (a.u.^3)     53986.6767
 PW_GRID| Grid span                                                    FULLSPACE
 PW_GRID|   Distribution                         Average         Max         Min
 PW_GRID|   G-Vectors                          1687500.0     1687800     1687200
 PW_GRID|   G-Rays                                2812.5        2813        2812
 PW_GRID|   Real Space Points                  1687500.0     1800000     1440000

 PW_GRID| Information for grid number                                          2
 PW_GRID| Number of the reference grid                                         1
 PW_GRID| Grid distributed over                                   128 processors
 PW_GRID| Real space group dimensions                                   128    1
 PW_GRID| the grid is blocked:                                                NO
 PW_GRID| Cutoff [a.u.]                                                    600.0
 PW_GRID| spherical cutoff:                                                   NO
 PW_GRID|   Bounds   1           -216     215                Points:         432
 PW_GRID|   Bounds   2           -216     215                Points:         432
 PW_GRID|   Bounds   3           -216     215                Points:         432
 PW_GRID| Volume element (a.u.^3)  0.6696E-03     Volume (a.u.^3)     53986.6767
 PW_GRID| Grid span                                                    FULLSPACE
 PW_GRID|   Distribution                         Average         Max         Min
 PW_GRID|   G-Vectors                           629856.0      630288      629424
 PW_GRID|   G-Rays                                1458.0        1459        1457
 PW_GRID|   Real Space Points                   629856.0      746496      559872

 PW_GRID| Information for grid number                                          3
 PW_GRID| Number of the reference grid                                         2
 PW_GRID| Grid distributed over                                   128 processors
 PW_GRID| Real space group dimensions                                   128    1
 PW_GRID| the grid is blocked:                                                NO
 PW_GRID| Cutoff [a.u.]                                                    200.0
 PW_GRID| spherical cutoff:                                                   NO
 PW_GRID|   Bounds   1           -121     121                Points:         243
 PW_GRID|   Bounds   2           -121     121                Points:         243
 PW_GRID|   Bounds   3           -121     121                Points:         243
 PW_GRID| Volume element (a.u.^3)  0.3762E-02     Volume (a.u.^3)     53986.6767
 PW_GRID| Grid span                                                    FULLSPACE
 PW_GRID|   Distribution                         Average         Max         Min
 PW_GRID|   G-Vectors                           112100.8      112266      111780
 PW_GRID|   G-Rays                                 461.3         462         460
 PW_GRID|   Real Space Points                   112100.8      118098       59049

 PW_GRID| Information for grid number                                          4
 PW_GRID| Number of the reference grid                                         2
 PW_GRID| Grid distributed over                                   128 processors
 PW_GRID| Real space group dimensions                                   128    1
 PW_GRID| the grid is blocked:                                                NO
 PW_GRID| Cutoff [a.u.]                                                     66.7
 PW_GRID| spherical cutoff:                                                   NO
 PW_GRID|   Bounds   1            -72      71                Points:         144
 PW_GRID|   Bounds   2            -72      71                Points:         144
 PW_GRID|   Bounds   3            -72      71                Points:         144
 PW_GRID| Volume element (a.u.^3)  0.1808E-01     Volume (a.u.^3)     53986.6767
 PW_GRID| Grid span                                                    FULLSPACE
 PW_GRID|   Distribution                         Average         Max         Min
 PW_GRID|   G-Vectors                            23328.0       23472       23184
 PW_GRID|   G-Rays                                 162.0         163         161
 PW_GRID|   Real Space Points                    23328.0       41472       20736

 PW_GRID| Information for grid number                                          5
 PW_GRID| Number of the reference grid                                         2
 PW_GRID| Grid distributed over                                   128 processors
 PW_GRID| Real space group dimensions                                     8   16
 PW_GRID| the grid is blocked:                                                NO
 PW_GRID| Cutoff [a.u.]                                                     22.2
 PW_GRID| spherical cutoff:                                                   NO
 PW_GRID|   Bounds   1            -40      40                Points:          81
 PW_GRID|   Bounds   2            -40      40                Points:          81
 PW_GRID|   Bounds   3            -40      40                Points:          81
 PW_GRID| Volume element (a.u.^3)  0.1016         Volume (a.u.^3)     53986.6767
 PW_GRID| Grid span                                                    FULLSPACE
 PW_GRID|   Distribution                         Average         Max         Min
 PW_GRID|   G-Vectors                             4151.9        4293        4050
 PW_GRID|   G-Rays                                  51.3          53          50
 PW_GRID|   Real Space Points                     4151.9        5346        4050

 PW_GRID| Information for grid number                                          6
 PW_GRID| Number of the reference grid                                         2
 PW_GRID| Grid distributed over                                   128 processors
 PW_GRID| Real space group dimensions                                     8   16
 PW_GRID| the grid is blocked:                                                NO
 PW_GRID| Cutoff [a.u.]                                                      7.4
 PW_GRID| spherical cutoff:                                                   NO
 PW_GRID|   Bounds   1            -24      23                Points:          48
 PW_GRID|   Bounds   2            -24      23                Points:          48
 PW_GRID|   Bounds   3            -24      23                Points:          48
 PW_GRID| Volume element (a.u.^3)  0.4882         Volume (a.u.^3)     53986.6767
 PW_GRID| Grid span                                                    FULLSPACE
 PW_GRID|   Distribution                         Average         Max         Min
 PW_GRID|   G-Vectors                              864.0         912         816
 PW_GRID|   G-Rays                                  18.0          19          17
 PW_GRID|   Real Space Points                      864.0         864         864

 POISSON| Solver                                          Martyna-Tuckerman (MT)
 POISSON| MT| Alpha                                                        7.000
 POISSON| MT| Relative cutoff                                                2.0
 POISSON| Periodicity                                                       NONE

 RS_GRID| Information for grid number                                          2
 RS_GRID|   Bounds   1           -216     215                Points:         432
 RS_GRID|   Bounds   2           -216     215                Points:         432
 RS_GRID|   Bounds   3           -216     215                Points:         432
 RS_GRID| Real space distribution over                                  4 groups
 RS_GRID| Real space distribution along direction                              1
 RS_GRID| Border size                                                         43
 RS_GRID| Real space distribution over                                  4 groups
 RS_GRID| Real space distribution along direction                              2
 RS_GRID| Border size                                                         43
 RS_GRID| Real space distribution over                                  8 groups
 RS_GRID| Real space distribution along direction                              3
 RS_GRID| Border size                                                         43
 RS_GRID|   Distribution                         Average         Max         Min
 RS_GRID|   Planes                                 194.0         194         194
 RS_GRID|   Distribution                         Average         Max         Min
 RS_GRID|   Planes                                 194.0         194         194
 RS_GRID|   Distribution                         Average         Max         Min
 RS_GRID|   Planes                                 140.0         140         140

 RS_GRID| Information for grid number                                          3
 RS_GRID|   Bounds   1           -121     121                Points:         243
 RS_GRID|   Bounds   2           -121     121                Points:         243
 RS_GRID|   Bounds   3           -121     121                Points:         243
 RS_GRID| Real space distribution over                                  4 groups
 RS_GRID| Real space distribution along direction                              1
 RS_GRID| Border size                                                         33
 RS_GRID| Real space distribution over                                  4 groups
 RS_GRID| Real space distribution along direction                              2
 RS_GRID| Border size                                                         33
 RS_GRID| Real space distribution over                                  8 groups
 RS_GRID| Real space distribution along direction                              3
 RS_GRID| Border size                                                         33
 RS_GRID|   Distribution                         Average         Max         Min
 RS_GRID|   Planes                                 126.8         127         126
 RS_GRID|   Distribution                         Average         Max         Min
 RS_GRID|   Planes                                 126.8         127         126
 RS_GRID|   Distribution                         Average         Max         Min
 RS_GRID|   Planes                                  96.4          97          96

 RS_GRID| Information for grid number                                          4
 RS_GRID|   Bounds   1            -72      71                Points:         144
 RS_GRID|   Bounds   2            -72      71                Points:         144
 RS_GRID|   Bounds   3            -72      71                Points:         144
 RS_GRID| Real space fully replicated
 RS_GRID| Group size                                                           1

 RS_GRID| Information for grid number                                          5
 RS_GRID|   Bounds   1            -40      40                Points:          81
 RS_GRID|   Bounds   2            -40      40                Points:          81
 RS_GRID|   Bounds   3            -40      40                Points:          81
 RS_GRID| Real space fully replicated
 RS_GRID| Group size                                                           1

 RS_GRID| Information for grid number                                          6
 RS_GRID|   Bounds   1            -24      23                Points:          48
 RS_GRID|   Bounds   2            -24      23                Points:          48
 RS_GRID|   Bounds   3            -24      23                Points:          48
 RS_GRID| Real space fully replicated
 RS_GRID| Group size                                                           1

  HFX_INFO| Replica ID:                                                        1
  HFX_INFO| FRACTION:                                               0.2500000000
  HFX_INFO| Interaction Potential:                                       COULOMB
  HFX_INFO| EPS_SCHWARZ:                                                 1.0E-10
  HFX_INFO| EPS_SCHWARZ_FORCES                                           1.0E-06
  HFX_INFO| EPS_STORAGE_SCALING:                                         1.0E+00
  HFX_INFO| NBINS:                                                            64
  HFX_INFO| BLOCK_SIZE:                                                        1
  HFX_INFO| Number of periodic shells considered:                           NONE
  HFX_INFO| Number of periodic cells considered:                            NONE


 Number of electrons:                                                          8
 Number of occupied orbitals:                                                  4
 Number of molecular orbitals:                                                 4

 Number of orbital functions:                                                 44
 Number of independent orbital functions:                                     44

 Extrapolation method: initial_guess

 Atomic guess: The first density matrix is obtained in terms of atomic orbitals
               and electronic configurations assigned to each atomic kind

 Guess for atomic kind: Cl

 Electronic structure
    Total number of core electrons                                         10.00
    Total number of valence electrons                                       7.00
    Total number of electrons                                              17.00
    Multiplicity                                                   not specified
    S   [  2.00  2.00] 2.00
    P   [  6.00] 5.00
 

 *******************************************************************************
                  Iteration          Convergence                     Energy [au]
 *******************************************************************************
                          1        0.294261E-01                 -14.777738293512
                          2        0.157700E-01                 -14.777884545854
                          3        0.226056E-02                 -14.777984077567
                          4        0.424851E-04                 -14.777985945157
                          5        0.521191E-06                 -14.777985945914

 Energy components [Hartree]           Total Energy ::          -14.777985945914
                                        Band Energy ::           -2.974917954657
                                     Kinetic Energy ::            5.567062954840
                                   Potential Energy ::          -20.345048900754
                                      Virial (-V/T) ::            3.654539038950
                                        Core Energy ::          -24.682191373889
                                          XC Energy ::           -2.742815510629
                                     Coulomb Energy ::           12.647020938603
                       Total Pseudopotential Energy ::          -30.308419329287
                       Local Pseudopotential Energy ::          -33.453843488998
                    Nonlocal Pseudopotential Energy ::            3.145424159710
                                        Confinement ::            0.591650005585

 Orbital energies  State     L     Occupation   Energy[a.u.]          Energy[eV]

                       1     0          2.000      -0.741540          -20.178326
 
                       1     1          5.000      -0.298368           -8.118996
 

 Total Electron Density at R=0:                                         0.000004

 Guess for atomic kind: H

 Electronic structure
    Total number of core electrons                                          0.00
    Total number of valence electrons                                       1.00
    Total number of electrons                                               1.00
    Multiplicity                                                   not specified
    S      1.00
 

 *******************************************************************************
                  Iteration          Convergence                     Energy [au]
 *******************************************************************************
                          1        0.414208E-02                  -0.424528229559
                          2        0.314168E-03                  -0.424550111617
                          3        0.369321E-04                  -0.424550384070
                          4        0.144789E-06                  -0.424550386562

 Energy components [Hartree]           Total Energy ::           -0.424550386562
                                        Band Energy ::           -0.199016913709
                                     Kinetic Energy ::            0.461279695514
                                   Potential Energy ::           -0.885830082076
                                      Virial (-V/T) ::            1.920375188178
                                        Core Energy ::           -0.479748082297
                                          XC Energy ::           -0.244575529316
                                     Coulomb Energy ::            0.299773225051
                       Total Pseudopotential Energy ::           -0.959966278400
                       Local Pseudopotential Energy ::           -0.959966278400
                    Nonlocal Pseudopotential Energy ::            0.000000000000
                                        Confinement ::            0.189385005893

 Orbital energies  State     L     Occupation   Energy[a.u.]          Energy[eV]

                       1     0          1.000      -0.199017           -5.415526
 

 Total Electron Density at R=0:                                         0.232501
 Re-scaling the density matrix to get the right number of electrons
                  # Electrons              Trace(P)               Scaling factor
                            8                 8.000                        1.000


 SCF WAVEFUNCTION OPTIMIZATION

  ----------------------------------- OT ---------------------------------------
  Minimizer      : DIIS                : direct inversion
                                         in the iterative subspace
                                         using   7 DIIS vectors
                                         safer DIIS on
  Preconditioner : FULL_ALL            : diagonalization, state selective
  Precond_solver : DEFAULT
  stepsize       :    0.15000000                  energy_gap     :    0.08000000
  eps_taylor     :   0.10000E-15                  max_taylor     :             4
  ----------------------------------- OT ---------------------------------------

  Step     Update method      Time    Convergence         Total energy    Change
  ------------------------------------------------------------------------------

  HFX_MEM_INFO| Est. max. program size before HFX [MiB]:                     922
  HFX_MEM_INFO| Number of cart. primitive ERI's calculated:              4629968
  HFX_MEM_INFO| Number of sph. ERI's calculated:                         1661536
  HFX_MEM_INFO| Number of sph. ERI's stored in-core:                     1661536
  HFX_MEM_INFO| Number of sph. ERI's stored on disk:                           0
  HFX_MEM_INFO| Number of sph. ERI's calculated on the fly:                    0
  HFX_MEM_INFO| Total memory consumption ERI's RAM [MiB]:                      8
  HFX_MEM_INFO| Whereof max-vals [MiB]:                                        1
  HFX_MEM_INFO| Total compression factor ERI's RAM:                         1.79
  HFX_MEM_INFO| Total memory consumption ERI's disk [MiB]:                     0
  HFX_MEM_INFO| Total compression factor ERI's disk:                        0.00
  HFX_MEM_INFO| Size of density/Fock matrix [MiB]:                             0
  HFX_MEM_INFO| Size of buffers [MiB]:                                         0
  HFX_MEM_INFO| Est. max. program size after HFX  [MiB]:                     923

     1 OT DIIS     0.15E+00   94.0     0.12429795       -15.3674469879 -1.54E+01
     2 OT DIIS     0.15E+00   54.0     0.03418123       -15.5731728651 -2.06E-01
     3 OT DIIS     0.15E+00   50.5     0.01353878       -15.5883300253 -1.52E-02
     4 OT DIIS     0.15E+00   47.2     0.00600225       -15.5913367114 -3.01E-03
     5 OT DIIS     0.15E+00   51.6     0.00111851       -15.5916580980 -3.21E-04
     6 OT DIIS     0.15E+00   53.8     0.00027231       -15.5916776973 -1.96E-05
     7 OT DIIS     0.15E+00   50.2     0.00005196       -15.5916785432 -8.46E-07
     8 OT DIIS     0.15E+00   51.5     0.00000594       -15.5916785973 -5.40E-08
     9 OT DIIS     0.15E+00   52.6     0.00000139       -15.5916785980 -7.27E-10
    10 OT DIIS     0.15E+00   49.4     0.00000027       -15.5916785980 -4.23E-11
    11 OT DIIS     0.15E+00   49.8     0.00000009       -15.5916785980 -1.56E-12

  *** SCF run converged in    11 steps ***


  Electronic density on regular grids:         -8.0000000000       -0.0000000000
  Core density on regular grids:                8.0000000000       -0.0000000000
  Total charge density on r-space grids:       -0.0000000000
  Total charge density g-space grids:          -0.0000000000

  Overlap energy of the core charge distribution:               0.00000026654655
  Self energy of the core charge distribution:                -35.12424175623532
  Core Hamiltonian energy:                                      8.21131737309921
  Hartree energy:                                              14.56547426454514
  Exchange-correlation energy:                                 -2.49564703461737
  Hartree-Fock Exchange energy:                                -0.74858171137877

  Total energy:                                               -15.59167859804055

  outer SCF iter =    1 RMS gradient =   0.94E-07 energy =        -15.5916785980
  outer SCF loop converged in   1 iterations or   11 steps


 !-----------------------------------------------------------------------------!
                     Mulliken Population Analysis

 #  Atom  Element  Kind  Atomic population                           Net charge
       1     Cl       1          7.089823                             -0.089823
       2     H        2          0.910177                              0.089823
 # Total charge                              8.000000                 -0.000000

 !-----------------------------------------------------------------------------!

 !-----------------------------------------------------------------------------!
                           Hirshfeld Charges

  #Atom  Element  Kind  Ref Charge     Population                    Net charge
      1       Cl     1       7.000          7.579                        -0.579
      2       H      2       1.000          0.420                         0.580

  Total Charge                                                            0.001
 !-----------------------------------------------------------------------------!

 *******************************************************************************
 **                                                                           **
 **         ######## #######   #######   ######## #######  ########           **
 **            ##    ##     ## ##     ## ##       ##   ##     ##              **
 **            ##    ##     ## ##     ## ######   #######     ##              **
 **            ##    ##     ## ##     ## ##       ##          ##              **
 **            ##    #######   #######   ##       ##          ##              **
 **                                                                           **
 *******************************************************************************
 KERNEL|                                                                    FULL
 FUNCTIONAL| PBE:
 FUNCTIONAL| J.P.Perdew, K.Burke, M.Ernzerhof, Phys. Rev. Letter, vol. 77, n 18,
 FUNCTIONAL|  pp. 3865-3868, (1996)sx=0.750sc=1.000{spin unpolarized}           
 KERNEL|                                                          Exact Exchange
 KERNEL| Spin symmetry of excitations                                    Triplet
 TDDFPT| Number of states calculated                                          10
 TDDFPT| Number of Davidson iterations                                        20
 TDDFPT| Davidson iteration convergence                                0.100E-07
 TDDFPT| Max. number of Krylov space vectors                                  60
 TDDFPT| Molecular Orbitals:        Spin       AOs       Occ      Virt     Total
 TDDFPT|                               1        44         4        40        44

 *******************************************************************************
 **                                                                           **
 **                            ####### ####### #######                        **
 **                        #   ##      ##   ## ##                             **
 **                       ###  ######  ##   ## ##                             **
 **                        #       ##  ##   ## ##                             **
 **                            ######  ####### #######                        **
 **                 Based on the xas module from Augustin Bussy               **
 *******************************************************************************
 
 -------------------------------------------------------------------------------
 -                      TDDFPT TRIPLET ENERGIES                                 -
 -------------------------------------------------------------------------------
 
 -------------------------------------------------------------------------------
 -                            TDDFPT Initial Guess                             -
 -------------------------------------------------------------------------------
          State         Occupied      ->      Virtual          Excitation
          number         orbital              orbital          energy (eV)
 -------------------------------------------------------------------------------
             1                4                    5              8.96797
             2                3                    5              8.96797
             3                4                    6             10.69528
             4                3                    6             10.69528
             5                4                    7             10.87100
             6                3                    7             10.87100
             7                4                    8             11.03101
             8                3                    8             11.03101
             9                4                    9             11.03101
            10                3                    9             11.03101

      Number of active states:                                        160
 -------------------------------------------------------------------------------
 
 -------------------------------------------------------------------------------
 -                      TDDFPT WAVEFUNCTION OPTIMIZATION                       -
 -------------------------------------------------------------------------------

          Step            Time         Convergence           Conv. states
 -------------------------------------------------------------------------------

    State    Exc. energy (eV)      Convergence (eV)
        1       6.9547040            -2.0133E+00
        2       6.9547040            -2.0133E+00
        3       9.0174259            -1.6778E+00
        4       9.0174259            -1.6778E+00
        5       9.5995287            -1.2715E+00
        6       9.6366726            -1.2343E+00
        7       9.6366726            -1.3943E+00
        8       9.7339894            -1.2970E+00
        9       9.7339894            -1.2970E+00
       10       9.8893978            -1.1416E+00
 
             1           509.0          7.3986E-02                      0

    State    Exc. energy (eV)      Convergence (eV)
        1       6.8359550            -1.1875E-01
        2       6.8359550            -1.1875E-01
        3       8.8075154            -2.0991E-01
        4       8.8075154            -2.0991E-01
        5       9.5092823            -9.0246E-02
        6       9.5890528            -4.7620E-02
        7       9.5890528            -4.7620E-02
        8       9.6765669            -5.7422E-02
        9       9.6765670            -5.7422E-02
       10       9.8637623            -2.5635E-02
 
             2           486.0          7.7141E-03                      0

    State    Exc. energy (eV)      Convergence (eV)
        1       6.8355447            -4.1022E-04
        2       6.8355447            -4.1022E-04
        3       8.8056516            -1.8638E-03
        4       8.8056516            -1.8638E-03
        5       9.5072715            -2.0109E-03
        6       9.5887425            -3.1029E-04
        7       9.5887425            -3.1029E-04
        8       9.6755348            -1.0322E-03
        9       9.6755348            -1.0322E-03
       10       9.8633535            -4.0883E-04
 
             3           485.4          7.3898E-05                      0

    State    Exc. energy (eV)      Convergence (eV)
        1       6.8355428            -1.9870E-06
        2       6.8355428            -1.9870E-06
        3       8.8056430            -8.6541E-06
        4       8.8056430            -8.6541E-06
        5       9.5059600            -1.3114E-03
        6       9.5887367            -5.7487E-06
        7       9.5887367            -5.7487E-06
        8       9.6754777            -5.7110E-05
        9       9.6754777            -5.7110E-05
       10       9.8633493            -4.2037E-06
 
             4           493.6          4.8194E-05                      0

    State    Exc. energy (eV)      Convergence (eV)
        1       6.8355427            -6.6232E-09
        2       6.8355428            -6.6232E-09
        3       8.8056429            -4.7047E-08
        4       8.8056429            -4.7047E-08
        5       9.5052043            -7.5573E-04
        6       9.5887367            -8.1694E-08
        7       9.5887367            -8.1694E-08
        8       9.6754776            -9.5247E-08
        9       9.6754776            -9.5248E-08
       10       9.8633493            -6.9095E-09
 
             5           478.5          2.7773E-05                      9

    State    Exc. energy (eV)      Convergence (eV)
        1       6.8355427            -1.6093E-11
        2       6.8355428            -1.6089E-11
        3       8.8056429            -1.7062E-10
        4       8.8056429            -1.7061E-10
        5       9.5049124            -2.9186E-04
        6       9.5887367            -5.4774E-10
        7       9.5887367            -5.4771E-10
        8       9.6754776            -4.7390E-10
        9       9.6754776            -4.7390E-10
       10       9.8360783            -2.7271E-02
 
             6           425.5          1.0022E-03                      8
 ------------------------- Restart Davidson iterations -------------------------

    State    Exc. energy (eV)      Convergence (eV)
        1       6.8355427             4.5316E-15
        2       6.8355428            -1.5105E-15
        3       8.8056429             1.8126E-14
        4       8.8056429             1.5105E-15
        5       9.5049124             9.0632E-15
        6       9.5887367             1.0574E-14
        7       9.5887367             3.0211E-15
        8       9.6754776            -1.5105E-15
        9       9.6754776             3.0211E-15
       10       9.8360783             1.5105E-15
 
             7           421.4          6.6613E-16                     10
 
 -------------------------------------------------------------------------------
 -  TDDFPT run converged in 7 iteration(s) 
 -------------------------------------------------------------------------------

 R-TDDFPT states of multiplicity 3
 Transition dipoles calculated using length formulation

         State    Excitation        Transition dipole (a.u.)        Oscillator
         number   energy (eV)       x           y           z     strength (a.u.)
         ------------------------------------------------------------------------
 TDDFPT|      1       6.83554   0.0000E+00  0.0000E+00  0.0000E+00   0.00000E+00
 TDDFPT|      2       6.83554   0.0000E+00  0.0000E+00  0.0000E+00   0.00000E+00
 TDDFPT|      3       8.80564   0.0000E+00  0.0000E+00  0.0000E+00   0.00000E+00
 TDDFPT|      4       8.80564   0.0000E+00  0.0000E+00  0.0000E+00   0.00000E+00
 TDDFPT|      5       9.50491   0.0000E+00  0.0000E+00  0.0000E+00   0.00000E+00
 TDDFPT|      6       9.58874   0.0000E+00  0.0000E+00  0.0000E+00   0.00000E+00
 TDDFPT|      7       9.58874   0.0000E+00  0.0000E+00  0.0000E+00   0.00000E+00
 TDDFPT|      8       9.67548   0.0000E+00  0.0000E+00  0.0000E+00   0.00000E+00
 TDDFPT|      9       9.67548   0.0000E+00  0.0000E+00  0.0000E+00   0.00000E+00
 TDDFPT|     10       9.83608   0.0000E+00  0.0000E+00  0.0000E+00   0.00000E+00

 TDDFPT : CheckSum  =  0.104380E+01
 
 -------------------------------------------------------------------------------
 -                            Excitation analysis                              -
 -------------------------------------------------------------------------------
        State             Occupied              Virtual             Excitation
        number             orbital              orbital             amplitude
 -------------------------------------------------------------------------------
             1   6.83554 eV
                                 4                    5              -0.919254
                                 4                    6               0.364958
                                 4                    7              -0.093832
                                 4                   13              -0.078475
                                 4                   14               0.051811
             2   6.83554 eV
                                 3                    5              -0.919254
                                 3                    6               0.364958
                                 3                    7              -0.093832
                                 3                   13              -0.078475
                                 3                   14               0.051811
             3   8.80564 eV
                                 4                    6              -0.887219
                                 4                    5              -0.365103
                                 4                   10               0.249868
                                 4                   13               0.097172
             4   8.80564 eV
                                 3                    6              -0.887219
                                 3                    5              -0.365103
                                 3                   10               0.249868
                                 3                   13               0.097172
             5   9.50491 eV
                                 4                    8               0.697000
                                 3                    9              -0.696999
                                 4                   15              -0.075152
                                 3                   16              -0.075152
                                 2                    5              -0.070109
                                 2                    6               0.062574
                                 4                   11              -0.054111
                                 3                   12               0.054111
             6   9.58874 eV
                                 4                    7              -0.989228
                                 4                    6              -0.080543
                                 4                    5               0.073123
                                 4                   13              -0.071261
                                 4                   14              -0.053886
             7   9.58874 eV
                                 3                    7               0.989228
                                 3                    6               0.080543
                                 3                    5              -0.073123
                                 3                   13               0.071261
                                 3                   14               0.053886
             8   9.67548 eV
                                 3                    9               0.536435
                                 4                    8               0.536435
                                 3                    8               0.454218
                                 4                    9              -0.454218
             9   9.67548 eV
                                 3                    8              -0.536435
                                 4                    9               0.536435
                                 3                    9               0.454218
                                 4                    8               0.454218
            10   9.83608 eV
                                 2                    5              -0.813807
                                 2                    6               0.516306
                                 2                   13              -0.117539
                                 2                    7              -0.113474
                                 4                   11              -0.093312
                                 3                   12               0.093312
                                 2                   14               0.089915
                                 3                    9               0.071854
                                 4                    8              -0.071854
 -------------------------------------------------------------------------------
 
 -------------------------------------------------------------------------------
 -                            Natural Orbital analysis                         -
 -------------------------------------------------------------------------------
   STATE NR.      1             6.83554 eV
     Particle-Hole state: 1   Spin:1     Eigenvalue: 0.99814   Sum Eigv: 0.99814
   STATE NR.      2             6.83554 eV
     Particle-Hole state: 1   Spin:1     Eigenvalue: 0.99814   Sum Eigv: 0.99814
   STATE NR.      3             8.80564 eV
     Particle-Hole state: 1   Spin:1     Eigenvalue: 0.99876   Sum Eigv: 0.99876
   STATE NR.      4             8.80564 eV
     Particle-Hole state: 1   Spin:1     Eigenvalue: 0.99876   Sum Eigv: 0.99876
   STATE NR.      5             9.50491 eV
     Particle-Hole state: 1   Spin:1     Eigenvalue: 0.49475   Sum Eigv: 0.49475
     Particle-Hole state: 2   Spin:1     Eigenvalue: 0.49475   Sum Eigv: 0.98950
   STATE NR.      6             9.58874 eV
     Particle-Hole state: 1   Spin:1     Eigenvalue: 0.99929   Sum Eigv: 0.99929
   STATE NR.      7             9.58874 eV
     Particle-Hole state: 1   Spin:1     Eigenvalue: 0.99929   Sum Eigv: 0.99929
   STATE NR.      8             9.67548 eV
     Particle-Hole state: 1   Spin:1     Eigenvalue: 0.49986   Sum Eigv: 0.49986
     Particle-Hole state: 2   Spin:1     Eigenvalue: 0.49986   Sum Eigv: 0.99972
   STATE NR.      9             9.67548 eV
     Particle-Hole state: 1   Spin:1     Eigenvalue: 0.49986   Sum Eigv: 0.49986
     Particle-Hole state: 2   Spin:1     Eigenvalue: 0.49986   Sum Eigv: 0.99972
   STATE NR.     10             9.83608 eV
     Particle-Hole state: 1   Spin:1     Eigenvalue: 0.96918   Sum Eigv: 0.96918
     Particle-Hole state: 2   Spin:1     Eigenvalue: 0.01444   Sum Eigv: 0.98362
 -------------------------------------------------------------------------------
 
                       triplet excitations finished                             
                                                                                
 -------------------------------------------------------------------------------
 -                      TDDFPT SINGLET ENERGIES                                -
 -------------------------------------------------------------------------------
 
 -------------------------------------------------------------------------------
 -                            TDDFPT Initial Guess                             -
 -------------------------------------------------------------------------------
          State         Occupied      ->      Virtual          Excitation
          number         orbital              orbital          energy (eV)
 -------------------------------------------------------------------------------
             1                4                    5              8.96797
             2                3                    5              8.96797
             3                4                    6             10.69528
             4                3                    6             10.69528
             5                4                    7             10.87100
             6                3                    7             10.87100
             7                4                    8             11.03101
             8                3                    8             11.03101
             9                4                    9             11.03101
            10                3                    9             11.03101

      Number of active states:                                        160
 -------------------------------------------------------------------------------
 
 -------------------------------------------------------------------------------
 -                      TDDFPT WAVEFUNCTION OPTIMIZATION                       -
 -------------------------------------------------------------------------------

          Step            Time         Convergence           Conv. states
 -------------------------------------------------------------------------------

    State    Exc. energy (eV)      Convergence (eV)
        1       7.5433992            -1.4246E+00
        2       7.5433992            -1.4246E+00
        3       9.4033883            -1.2919E+00
        4       9.4033883            -1.2919E+00
        5       9.7228186            -1.1482E+00
        6       9.7228186            -1.1482E+00
        7       9.8344431            -1.1966E+00
        8       9.8344431            -1.1966E+00
        9       9.8893978            -1.1416E+00
       10      10.4701307            -5.6087E-01
 
             1           438.5          5.2352E-02                      0

    State    Exc. energy (eV)      Convergence (eV)
        1       7.4734821            -6.9917E-02
        2       7.4734821            -6.9917E-02
        3       9.2731300            -1.3026E-01
        4       9.2731300            -1.3026E-01
        5       9.6793918            -4.3427E-02
        6       9.6793918            -4.3427E-02
        7       9.8134735            -2.0970E-02
        8       9.8134736            -2.0970E-02
        9       9.8637623            -2.5635E-02
       10      10.2004297            -2.6970E-01
 
             2           458.2          9.9113E-03                      0

    State    Exc. energy (eV)      Convergence (eV)
        1       7.4706692            -2.8129E-03
        2       7.4706692            -2.8129E-03
        3       9.2669620            -6.1680E-03
        4       9.2669620            -6.1680E-03
        5       9.6779618            -1.4300E-03
        6       9.6779618            -1.4300E-03
        7       9.8132332            -2.4029E-04
        8       9.8132333            -2.4029E-04
        9       9.8633535            -4.0883E-04
       10      10.1844731            -1.5957E-02
 
             3           463.4          5.8639E-04                      0

    State    Exc. energy (eV)      Convergence (eV)
        1       7.4706610            -8.1224E-06
        2       7.4706611            -8.1224E-06
        3       9.2669297            -3.2293E-05
        4       9.2669297            -3.2293E-05
        5       9.6779518            -1.0021E-05
        6       9.6779518            -1.0021E-05
        7       9.8132184            -1.4800E-05
        8       9.8132185            -1.4800E-05
        9       9.8633493            -4.2037E-06
[...]
 flops    14 x    30 x     4               981120       0.0%    100.0%      0.0%
 flops    14 x     4 x    14              1716960       0.0%    100.0%      0.0%
 flops     4 x     4 x    30              1963200       0.0%    100.0%      0.0%
 flops    30 x    30 x     4              2102400       0.0%    100.0%      0.0%
 flops    14 x     4 x    30              3679200       0.0%    100.0%      0.0%
 flops    30 x     4 x    14              3679200       0.0%    100.0%      0.0%
 flops    30 x     4 x    30              7884000       0.0%    100.0%      0.0%
 flops inhomo. stacks                           0       0.0%      0.0%      0.0%
 flops total                        24.601472E+06       0.0%    100.0%      0.0%
 flops max/rank                     18.106112E+06       0.0%    100.0%      0.0%
 matmuls inhomo. stacks                         0       0.0%      0.0%      0.0%
 matmuls total                               9593       0.0%    100.0%      0.0%
 number of processed stacks                  8793       0.0%    100.0%      0.0%
 average stack size                                     0.0       1.1       0.0
 marketing flops                    25.584000E+06
 -------------------------------------------------------------------------------
 # multiplications                           1459
 max memory usage/rank               1.459614E+09
 # max total images/rank                        2
 # max 3D layers                                1
 # MPI messages exchanged                 5415808
 MPI messages size (bytes):
  total size                       250.809344E+06
  min size                           0.000000E+00
  max size                          10.560000E+03
  average size                      46.310604E+00
 MPI breakdown and total messages size (bytes):
             size <=      128             5352456                   312064
       128 < size <=     8192               49072                 99700480
      8192 < size <=    32768               14280                150796800
     32768 < size <=   131072                   0                        0
    131072 < size <=  4194304                   0                        0
   4194304 < size <= 16777216                   0                        0
  16777216 < size                               0                        0
 -------------------------------------------------------------------------------

 *** WARNING in dbcsr_mm.F:291 :: Using a non-square number of MPI ranks ***
 *** might lead to poor performance. Used ranks: 128 Suggested: 121 256  ***

 -------------------------------------------------------------------------------
 -                                                                             -
 -                      DBCSR MESSAGE PASSING PERFORMANCE                      -
 -                                                                             -
 -------------------------------------------------------------------------------
 ROUTINE             CALLS      AVE VOLUME [Bytes]
 MP_Bcast               22                     12.
 MP_Allreduce         5932                      8.
 MP_Alltoall         27558                  37054.
 MP_ISend            92846                    278.
 MP_IRecv            90398                    114.
 -------------------------------------------------------------------------------

 -------------------------------------------------------------------------------
 -                                                                             -
 -                                DBM STATISTICS                               -
 -                                                                             -
 -------------------------------------------------------------------------------
    M  x    N  x    K                                          COUNT     PERCENT
 -------------------------------------------------------------------------------

 -------------------------------------------------------------------------------
 -                                                                             -
 -                                GRID STATISTICS                              -
 -                                                                             -
 -------------------------------------------------------------------------------
 LP    KERNEL             BACKEND                              COUNT     PERCENT
 1     collocate ortho    CPU                                  16632      18.03%
 1     integrate ortho    CPU                                  16308      17.67%
 2     collocate ortho    CPU                                  14938      16.19%
 2     integrate ortho    CPU                                  14647      15.87%
 0     collocate ortho    CPU                                   8778       9.51%
 0     integrate ortho    CPU                                   8607       9.33%
 3     collocate ortho    CPU                                   5236       5.67%
 3     integrate ortho    CPU                                   5134       5.56%
 4     collocate ortho    CPU                                    616       0.67%
 4     integrate ortho    CPU                                    604       0.65%
 0     collocate general  CPU                                    512       0.55%
 0     integrate general  CPU                                    256       0.28%
 -------------------------------------------------------------------------------

 MEMORY| Estimated peak process memory [MiB]                                1393

 -------------------------------------------------------------------------------
 ----                             MULTIGRID INFO                            ----
 -------------------------------------------------------------------------------
 count for grid        1:        1190458          cutoff [a.u.]          600.00
 count for grid        2:        1530970          cutoff [a.u.]          200.00
 count for grid        3:        1187919          cutoff [a.u.]           66.67
 count for grid        4:         547891          cutoff [a.u.]           22.22
 count for grid        5:         112662          cutoff [a.u.]            7.41
 total gridlevel count  :        4569900

 -------------------------------------------------------------------------------
 -                                                                             -
 -                         MESSAGE PASSING PERFORMANCE                         -
 -                                                                             -
 -------------------------------------------------------------------------------

 ROUTINE             CALLS      AVE VOLUME [Bytes]
 MP_Group                6
 MP_Bcast              240                1458277.
 MP_Allreduce         5714                   1382.
 MP_Sync              1532
 MP_Alltoall          3974               18338299.
 MP_SendRecv         58674                 127152.
 MP_ISendRecv       131699                  61473.
 MP_Wait            160996
 MP_comm_split          69
 MP_ISend            23904                 699859.
 MP_IRecv            26540                 630297.
 -------------------------------------------------------------------------------


 -------------------------------------------------------------------------------
 -                                                                             -
 -                           R E F E R E N C E S                               -
 -                                                                             -
 -------------------------------------------------------------------------------
 
 CP2K version 2024.1 (Development Version), the CP2K developers group (2024).
 CP2K is freely available from https://www.cp2k.org/ .

 Kuehne,Thomas D.; Iannuzzi,Marcella; Del Ben,Mauro;
 Rybkin,Vladimir V.; Seewald,Patrick; Stein,Frederick; Laino,Teodoro;
 Khaliullin,Rustam Z.; Schuett,Ole; Schiffmann,Florian; Golze,Dorothea;
 Wilhelm,Jan; Chulkov,Sergey; Bani-Hashemian,Mohammad Hossein;
 Weber,Valery; Borstnik,Urban; Taillefumier,Mathieu;
 Jakobovits,Alice Shoshana; Lazzaro,Alfio; Pabst,Hans; Mueller,Tiziano;
 Schade,Robert; Guidon,Manuel; Andermatt,Samuel; Holmberg,Nico;
 Schenter,Gregory K.; Hehn,Anna; Bussy,Augustin; Belleflamme,Fabian;
 Tabacchi,Gloria; Gloess,Andreas; Lass,Michael; Bethune,Iain;
 Mundy,Christopher J.; Plessl,Christian; Watkins,Matt;
 VandeVondele,Joost; Krack,Matthias; Hutter,Juerg. 
 The Journal of Chemical Physics, 152 (19), (2020). 
 CP2K: An electronic structure and molecular dynamics software package -
 Quickstep: Efficient and accurate electronic structure calculations.
 https://doi.org/10.1063/5.0007045

 Schuett, Ole; Messmer, Peter; Hutter, Juerg; VandeVondele, Joost. 
 Electronic Structure Calculations on Graphics Processing Units, John
 Wiley & Sons, Ltd, 173-190 (2016). 
 GPU-Accelerated Sparse Matrix-Matrix Multiplication for
 Linear Scaling Density Functional Theory.
 https://doi.org/10.1002/9781118670712.ch8

 Heinecke, A; Henry, G; Hutchinson, M; Pabst, H. 
 Proceedings of Intl. Supercomputing Conference, 981-991 (2016). 
 LIBXSMM: Accelerating Small Matrix Multiplications
 by Runtime Code Generation.
 https://doi.org/10.1109/SC.2016.83

 Borstnik, U; VandeVondele, J; Weber, V; Hutter, J. 
 PARALLEL COMPUTING, 40 (5-6), 47-58 (2014). 
 Sparse matrix multiplication: The distributed block-compressed sparse
 row library.
 https://doi.org/10.1016/j.parco.2014.03.012

 Hutter, J; Iannuzzi, M; Schiffmann, F; VandeVondele, J. 
 WIREs Comput Mol Sci., 4 (1), 15-25 (2014). 
 CP2K: atomistic simulations of condensed matter systems.
 https://doi.org/10.1002/wcms.1159

 Guidon, M; Hutter, J; VandeVondele, J. 
 JOURNAL OF CHEMICAL THEORY AND COMPUTATION, 5 (11), 3010-3021 (2009). 
 Robust Periodic Hartree-Fock Exchange for Large-Scale Simulations Using
 Gaussian Basis Sets.
 https://doi.org/10.1021/ct900494g

 Guidon, M; Schiffmann, F; Hutter, J; VandeVondele, J. 
 JOURNAL OF CHEMICAL PHYSICS, 128 (21), 214104 (2008). 
 Ab initio molecular dynamics using hybrid density functionals.
 https://doi.org/10.1063/1.2931945

 Krack, M. 
 THEORETICAL CHEMISTRY ACCOUNTS, 114 (1-3), 145-152 (2005). 
 Pseudopotentials for H to Kr optimized for gradient-corrected
 exchange-correlation functionals.
 https://doi.org/10.1007/s00214-005-0655-y

 VandeVondele, J; Krack, M; Mohamed, F; Parrinello, M; Chassaing, T;
 Hutter, J. COMPUTER PHYSICS COMMUNICATIONS, 167 (2), 103-128 (2005). 
 QUICKSTEP: Fast and accurate density functional calculations using a
 mixed Gaussian and plane waves approach.
 https://doi.org/10.1016/j.cpc.2004.12.014

 Frigo, M; Johnson, SG. 
 PROCEEDINGS OF THE IEEE, 93 (2), 216-231 (2005). 
 The design and implementation of FFTW3.
 https://doi.org/10.1109/JPROC.2004.840301

 Iannuzzi, M; Chassaing, T; Wallman, T; Hutter, J. 
 CHIMIA, 59 (7-8), 499-503 (2005). 
 Ground and excited state density functional calculations with the
 Gaussian and augmented-plane-wave method.
 https://doi.org/10.2533/000942905777676164

 VandeVondele, J; Hutter, J. 
 JOURNAL OF CHEMICAL PHYSICS, 118 (10), 4365-4369 (2003). 
 An efficient orbital transformation method for electronic structure
 calculations.
 https://doi.org/10.1063/1.1543154

 Martin,Richard L.. 
 The Journal of Chemical Physics, 118 (11), 4775-4777 (2003). 
 Natural transition orbitals.
 https://doi.org/10.1063/1.1558471

 Martyna, GJ; Tuckerman, ME. 
 JOURNAL OF CHEMICAL PHYSICS, 110 (6), 2810-2821 (1999). 
 A reciprocal space based method for treating long range interactions in
 ab initio and force-field-based calculations in clusters.
 https://doi.org/10.1063/1.477923

 Hartwigsen, C; Goedecker, S; Hutter, J. 
 PHYSICAL REVIEW B, 58 (7), 3641-3662 (1998). 
 Relativistic separable dual-space Gaussian pseudopotentials from H to Rn.
 https://doi.org/10.1103/PhysRevB.58.3641

 Lippert, G; Hutter, J; Parrinello, M. 
 MOLECULAR PHYSICS, 92 (3), 477-487 (1997). 
 A hybrid Gaussian and plane wave density functional scheme.
 https://doi.org/10.1080/002689797170220

 Perdew, JP; Burke, K; Ernzerhof, M. 
 PHYSICAL REVIEW LETTERS, 77 (18), 3865-3868 (1996). 
 Generalized gradient approximation made simple.
 https://doi.org/10.1103/PhysRevLett.77.3865

 Goedecker, S; Teter, M; Hutter, J. 
 PHYSICAL REVIEW B, 54 (3), 1703-1710 (1996). 
 Separable dual-space Gaussian pseudopotentials.
 https://doi.org/10.1103/PhysRevB.54.1703


 -------------------------------------------------------------------------------
 -                                                                             -
 -                                T I M I N G                                  -
 -                                                                             -
 -------------------------------------------------------------------------------
 SUBROUTINE                       CALLS  ASD         SELF TIME        TOTAL TIME
                                MAXIMUM       AVERAGE  MAXIMUM  AVERAGE  MAXIMUM
 CP2K                                 1  1.0    5.808    6.443 7871.461 7871.514
 qs_energies                          1  2.0    0.034    0.172 7810.999 7811.093
 qs_energies_properties               1  3.0    0.001    0.013 7163.039 7163.110
 tddfpt                               1  4.0    0.022    0.061 7163.039 7163.110
 tddfpt_soc_energies                  1  5.0    0.000    0.012 7135.231 7135.293
 tddfpt_energies                      2  6.0    0.001    0.013 7051.346 7051.471
 tddfpt_davidson_solver               4  7.0    0.030    0.112 6525.024 6525.084
 tddfpt_compute_Aop_evects           14  8.0    0.010    0.047 5754.352 5754.578
 fhxc_kernel                         14  9.0    0.021    0.082 3778.749 3778.999
 mp_waitall_1                    297864 14.4 2248.148 2282.671 2248.148 2282.671
 cp_dbcsr_sm_fm_multiply            883  9.5    0.011    0.033 1708.794 1718.079
 tddfpt_apply_hfx                    14  9.0    0.002    0.015 1682.502 1682.614
 qs_rho_update_rho_low              154  9.6    0.007    0.045 1608.764 1610.531
 calculate_rho_elec                 154 10.6    0.309    0.603 1608.757 1610.530
 density_rs2pw                      154 11.6    0.016    0.060 1582.542 1586.573
 integrate_v_rspace                 151  9.9    0.007    0.030 1562.901 1565.994
 potential_pw2rs                    151 10.9    0.043    0.091 1528.112 1535.778
 dbcsr_complete_redistribute       2835 11.5    0.062    0.100 1372.400 1395.490
 transfer_pw2rs                     756 11.9    0.007    0.031 1386.826 1394.460
 transfer_rs2pw                     772 12.6    0.008    0.037 1368.634 1373.363
 mp_sendrecv_dv                   58674 14.6 1178.506 1185.666 1178.506 1185.666
 integrate_four_center              291 10.9    0.096    0.212 1059.921 1063.277
 tddft_hfx_matrix                   280 10.0    0.013    0.052  989.307  992.571
 copy_dbcsr_to_fm                   941 10.4    0.007    0.020  973.620  987.254
 transfer_pw2rs_70                  151 12.9    4.235    8.718  863.785  894.591
 dbcsr_multiply_generic            1459 11.1    0.052    0.101  713.491  728.752
 transfer_rs2pw_70                  154 13.6    2.585    5.337  713.773  725.035
 pw_transfer                       3203 12.4    0.269    0.400  685.004  691.666
 fft_wrap_pw1pw2                   3041 13.4    0.029    0.066  684.081  690.862
 copy_fm_to_dbcsr                  1890 10.6    0.004    0.017  643.545  666.943
 fft3d_ps                          3041 15.4   69.495   74.426  647.369  656.843
 mp_alltoall_d11v                 11675 12.8  587.840  632.668  587.840  632.668
 scf_env_do_scf                       1  3.0    0.001    0.013  618.930  618.958
 integrate_four_center_getP         291 11.9    0.035    0.066  560.873  563.850
 scf_env_do_scf_inner_loop           11  4.0    0.005    0.033  545.098  545.144
 tddfpt_orthonormalize_psi1_psi      16  7.9    0.008    0.038  509.749  511.227
 mp_alltoall_i11v                  9480 12.5  488.729  490.122  488.729  490.122
 mp_alltoall_z22v                  3041 17.4  463.827  474.832  463.827  474.832
 fft_wrap_pw1pw2_600               1820 14.6    6.678    8.384  462.890  469.002
 integrate_four_center_dist_KS      291 11.9    0.036    0.064  463.315  463.826
 cp_fm_syevd                         69  9.0    0.009    0.037  438.140  438.828
 tddfpt_print_nto_analysis            2  7.0    0.013    0.049  432.078  432.251
 cp_dbcsr_sm_fm_multiply_core       883 10.5    0.002    0.014  352.830  366.651
 cp_fm_redistribute_end              69 10.0  194.784  346.377  198.296  348.831
 mp_sum_l                          5853 11.3  333.618  346.523  333.618  346.523
 tddfpt_apply_xc_analytic           140 10.0    1.126    1.820  339.698  341.369
 mp_cart_sub                       1890 12.4  304.646  305.755  304.646  305.755
 cp_fm_syevd_base                    69 10.0  148.271  298.691  148.271  298.691
 tddfpt_apply_energy_diff            14  9.0    0.000    0.001  293.092  293.216
 xc_pw_derive                      1125 11.7    0.033    0.117  288.157  292.248
 cp_dbcsr_plus_fm_fm_t_native       141 10.0    0.006    0.036  277.022  278.612
 mp_waitany                       23904 14.2  250.901  276.932  250.901  276.932
 dbcsr_desymmetrize_deep            945 11.4    0.015    0.045  247.219  261.046
 cp_fm_geeig                         20  8.0    0.004    0.034  256.172  256.574
 transfer_rs2pw_30                  154 13.6    0.325    0.541  244.763  253.591
 mp_sum_dv                         4002 10.1  235.348  238.079  235.348  238.079
 x_to_yz                           1360 16.1    9.163   12.610  230.604  233.937
 transfer_rs2pw_10                  154 13.6    0.072    0.127  222.952  232.015
 qs_scf_new_mos                      11  5.0    0.000    0.012  231.779  231.927
 qs_scf_loop_do_ot                   11  6.0    0.000    0.000  231.779  231.927
 cp_fm_trace_a1b1t1_aa             3880  9.0    0.007    0.019  226.234  228.798
 yz_to_x                           1071 17.0    5.527    6.987  216.588  224.820
 ot_scf_mini                         11  7.0    0.000    0.012  224.597  224.722
 mp_sync                           1532 12.6  204.224  224.558  204.224  224.558
 transfer_pw2rs_30                  151 12.9    0.438    0.661  216.640  224.254
 qs_ks_update_qs_env                 12  5.0    0.000    0.013  222.645  222.933
 rebuild_ks_matrix                   11  6.0    0.003    0.027  221.153  221.389
 qs_ks_build_kohn_sham_matrix        11  7.0    0.011    0.049  221.150  221.389
 mp_alltoall_i22                   3790 12.5  191.834  220.122  191.834  220.122
 transfer_pw2rs_10                  151 12.9    0.106    0.172  201.045  209.310
 multiply_cannon                   1459 12.1    0.072    0.093  191.131  199.109
 tddfpt_compute_residual_vects       10  8.0    0.000    0.000  182.115  182.579
 xc_calc_2nd_deriv_analytical       140 11.0   25.370   27.800  173.643  174.290
 transfer_rs2pw_200                 154 13.6    1.228    2.004  160.736  171.726
 make_m2s                          2918 12.1    0.023    0.036  150.617  159.760
 make_images                       2918 13.1    0.040    0.061  150.568  159.712
 make_images_sizes                 2918 14.1    0.002    0.015  150.342  159.593
 mp_alltoall_i44                   2918 15.1  150.339  159.590  150.339  159.590
 -------------------------------------------------------------------------------

 The number of warnings for this run is : 1
 
 -------------------------------------------------------------------------------
  **** **** ******  **  PROGRAM ENDED AT                 2024-02-01 11:28:41.683
 ***** ** ***  *** **   PROGRAM RAN ON                               nesh-srp151
 **    ****   ******    PROGRAM RAN BY                                  suphc355
 ***** **    ** ** **   PROGRAM PROCESS ID                                508865
  **** **  *******  **  PROGRAM STOPPED IN /gxfs_work/cau/suphc355/homologes/HX/
                                           PP/Cl
