 DBCSR| CPU Multiplication driver                                           XSMM (U)
 DBCSR| Multrec recursion limit                                              512 (U)
 DBCSR| Multiplication stack size                                           1000 (D)
 DBCSR| Maximum elements for images                                    UNLIMITED (U)
 DBCSR| Multiplicative factor virtual images                                   1 (U)
 DBCSR| Use multiplication densification                                       T (D)
 DBCSR| Multiplication size stacks                                             3 (U)
 DBCSR| Use memory pool for CPU allocation                                     F (U)
 DBCSR| Number of 3D layers                                               SINGLE (U)
 DBCSR| Use MPI memory allocation                                              F (U)
 DBCSR| Use RMA algorithm                                                      F (U)
 DBCSR| Use Communication thread                                               T (U)
 DBCSR| Communication thread load                                             83 (D)
 DBCSR| MPI: My process id                                                     0
 DBCSR| MPI: Number of processes                                             128
 DBCSR| OMP: Current number of threads                                         2
 DBCSR| OMP: Max number of threads                                             2
 DBCSR| Split modifier for TAS multiplication algorithm                  1.0E+00 (U)


  **** **** ******  **  PROGRAM STARTED AT               2024-01-12 14:46:02.282
 ***** ** ***  *** **   PROGRAM STARTED ON                           nesh-srp312
 **    ****   ******    PROGRAM STARTED BY                              suphc355
 ***** **    ** ** **   PROGRAM PROCESS ID                               2617598
  **** **  *******  **  PROGRAM STARTED IN /gxfs_work/cau/suphc355/homologes/HX/
                                           PP/Cl

 CP2K| version string:                 CP2K version 2024.1 (Development Version)
 CP2K| source code revision number:                                  git:15182a3
 CP2K| cp2kflags: omp libint fftw3 libxc libgrpp parallel mpi_f08 scalapack cosm
 CP2K|            a xsmm spglib mkl
 CP2K| is freely available from                            https://www.cp2k.org/
 CP2K| Program compiled at                           Di 9. Jan 09:05:01 CET 2024
 CP2K| Program compiled on                                           nesh-login2
 CP2K| Program compiled for                                                local
 CP2K| Data directory path            /gxfs_home/cau/suphc355/software/cp2k/data
 CP2K| Input file name                                               PP_quad.inp
 
 GLOBAL| Force Environment number                                              1
 GLOBAL| Basis set file name                                 ../../../basis_quad
 GLOBAL| Potential file name                                  GTH_SOC_POTENTIALS
 GLOBAL| MM Potential file name                                     MM_POTENTIAL
 GLOBAL| Coordinate file name                                            opt.xyz
 GLOBAL| Method name                                                        CP2K
 GLOBAL| Project name                                                HCl_PP_quad
 GLOBAL| Run type                                                         ENERGY
 GLOBAL| FFT library                                                       FFTW3
 GLOBAL| Diagonalization library                                       ScaLAPACK
 GLOBAL| DGEMM library                                                      BLAS
 GLOBAL| Orthonormality check for eigenvectors                          DISABLED
 GLOBAL| Matrix multiplication library                                     COSMA
 GLOBAL| All-to-all communication in single precision                          F
 GLOBAL| FFTs using library dependent lengths                                  F
 GLOBAL| Grid backend                                                       AUTO
 GLOBAL| Global print level                                               MEDIUM
 GLOBAL| MPI I/O enabled                                                       T
 GLOBAL| Total number of message passing processes                           128
 GLOBAL| Number of threads for this process                                    2
 GLOBAL| This output is from process                                           0
 GLOBAL| Stack size for threads created by OpenMP (OMP_STACKSIZE)        default
 GLOBAL| CPU model name                              Intel(R) Xeon(R) Gold 6426Y
 GLOBAL| CPUID                                                              1003

 MEMORY| system memory details [Kb]
 MEMORY|                        rank 0           min           max       average
 MEMORY| MemTotal            263786136     263786136     263787636     263786511
 MEMORY| MemFree             244215332     243932716     244263660     244166522
 MEMORY| Buffers                953188        951304        953704        952822
 MEMORY| Cached                 718708        709272        736440        718920
 MEMORY| Slab                   500828        499332        516720        504093
 MEMORY| SReclaimable           135500        134048        135812        135255
 MEMORY| MemLikelyFree       246022728     245758672     246060272     245973519


 *** Fundamental physical constants (SI units) ***

 *** Literature: B. J. Mohr and B. N. Taylor,
 ***             CODATA recommended values of the fundamental physical
 ***             constants: 2006, Web Version 5.1
 ***             http://physics.nist.gov/constants

 Speed of light in vacuum [m/s]                             2.99792458000000E+08
 Magnetic constant or permeability of vacuum [N/A**2]       1.25663706143592E-06
 Electric constant or permittivity of vacuum [F/m]          8.85418781762039E-12
 Planck constant (h) [J*s]                                  6.62606896000000E-34
 Planck constant (h-bar) [J*s]                              1.05457162825177E-34
 Elementary charge [C]                                      1.60217648700000E-19
 Electron mass [kg]                                         9.10938215000000E-31
 Electron g factor [ ]                                     -2.00231930436220E+00
 Proton mass [kg]                                           1.67262163700000E-27
 Fine-structure constant                                    7.29735253760000E-03
 Rydberg constant [1/m]                                     1.09737315685270E+07
 Avogadro constant [1/mol]                                  6.02214179000000E+23
 Boltzmann constant [J/K]                                   1.38065040000000E-23
 Atomic mass unit [kg]                                      1.66053878200000E-27
 Bohr radius [m]                                            5.29177208590000E-11

 *** Conversion factors ***

 [u] -> [a.u.]                                              1.82288848426455E+03
 [Angstrom] -> [Bohr] = [a.u.]                              1.88972613288564E+00
 [a.u.] = [Bohr] -> [Angstrom]                              5.29177208590000E-01
 [a.u.] -> [s]                                              2.41888432650478E-17
 [a.u.] -> [fs]                                             2.41888432650478E-02
 [a.u.] -> [J]                                              4.35974393937059E-18
 [a.u.] -> [N]                                              8.23872205491840E-08
 [a.u.] -> [K]                                              3.15774647902944E+05
 [a.u.] -> [kJ/mol]                                         2.62549961709828E+03
 [a.u.] -> [kcal/mol]                                       6.27509468713739E+02
 [a.u.] -> [Pa]                                             2.94210107994716E+13
 [a.u.] -> [bar]                                            2.94210107994716E+08
 [a.u.] -> [atm]                                            2.90362800883016E+08
 [a.u.] -> [eV]                                             2.72113838565563E+01
 [a.u.] -> [Hz]                                             6.57968392072181E+15
 [a.u.] -> [1/cm] (wave numbers)                            2.19474631370540E+05
 [a.u./Bohr**2] -> [1/cm]                                   5.14048714338585E+03
 

 CELL_TOP| Volume [angstrom^3]:                                       512.000000
 CELL_TOP| Vector a [angstrom     8.000     0.000     0.000   |a| =     8.000000
 CELL_TOP| Vector b [angstrom     0.000     8.000     0.000   |b| =     8.000000
 CELL_TOP| Vector c [angstrom     0.000     0.000     8.000   |c| =     8.000000
 CELL_TOP| Angle (b,c), alpha [degree]:                                90.000000
 CELL_TOP| Angle (a,c), beta  [degree]:                                90.000000
 CELL_TOP| Angle (a,b), gamma [degree]:                                90.000000
 CELL_TOP| Numerically orthorhombic:                                         YES
 CELL_TOP| Periodicity                                                      NONE
 
 GENERATE|  Preliminary Number of Bonds generated:                             0
 GENERATE|  Achieved consistency in connectivity generation.

 CELL| Volume [angstrom^3]:                                           512.000000
 CELL| Vector a [angstrom]:       8.000     0.000     0.000   |a| =     8.000000
 CELL| Vector b [angstrom]:       0.000     8.000     0.000   |b| =     8.000000
 CELL| Vector c [angstrom]:       0.000     0.000     8.000   |c| =     8.000000
 CELL| Angle (b,c), alpha [degree]:                                    90.000000
 CELL| Angle (a,c), beta  [degree]:                                    90.000000
 CELL| Angle (a,b), gamma [degree]:                                    90.000000
 CELL| Numerically orthorhombic:                                             YES
 CELL| Periodicity                                                          NONE

 CELL_REF| Volume [angstrom^3]:                                       512.000000
 CELL_REF| Vector a [angstrom     8.000     0.000     0.000   |a| =     8.000000
 CELL_REF| Vector b [angstrom     0.000     8.000     0.000   |b| =     8.000000
 CELL_REF| Vector c [angstrom     0.000     0.000     8.000   |c| =     8.000000
 CELL_REF| Angle (b,c), alpha [degree]:                                90.000000
 CELL_REF| Angle (a,c), beta  [degree]:                                90.000000
 CELL_REF| Angle (a,b), gamma [degree]:                                90.000000
 CELL_REF| Numerically orthorhombic:                                         YES
 CELL_REF| Periodicity                                                      NONE

 *******************************************************************************
 *   ___                                                                       *
 *  /   \                                                                      *
 * [ABORT]                                                                     *
 *  \___/    The requested basis set <AUG-QZV2P-GTH> for element <CL> was not  *
 *    |             found in the basis set files <../../../basis_quad>         *
 *  O/|                                                                        *
 * /| |                                                                        *
 * / \                                          aobasis/basis_set_types.F:1438 *
 *******************************************************************************


 ===== Routine Calling Stack ===== 

            3 read_qs_kind
            2 create_qs_kind_set
            1 CP2K
 DBCSR| CPU Multiplication driver                                           XSMM (U)
 DBCSR| Multrec recursion limit                                              512 (U)
 DBCSR| Multiplication stack size                                           1000 (D)
 DBCSR| Maximum elements for images                                    UNLIMITED (U)
 DBCSR| Multiplicative factor virtual images                                   1 (U)
 DBCSR| Use multiplication densification                                       T (D)
 DBCSR| Multiplication size stacks                                             3 (U)
 DBCSR| Use memory pool for CPU allocation                                     F (U)
 DBCSR| Number of 3D layers                                               SINGLE (U)
 DBCSR| Use MPI memory allocation                                              F (U)
 DBCSR| Use RMA algorithm                                                      F (U)
 DBCSR| Use Communication thread                                               T (U)
 DBCSR| Communication thread load                                             83 (D)
 DBCSR| MPI: My process id                                                     0
 DBCSR| MPI: Number of processes                                             128
 DBCSR| OMP: Current number of threads                                         2
 DBCSR| OMP: Max number of threads                                             2
 DBCSR| Split modifier for TAS multiplication algorithm                  1.0E+00 (U)


  **** **** ******  **  PROGRAM STARTED AT               2024-01-15 13:52:51.298
 ***** ** ***  *** **   PROGRAM STARTED ON                           nesh-clk555
 **    ****   ******    PROGRAM STARTED BY                              suphc355
 ***** **    ** ** **   PROGRAM PROCESS ID                                714279
  **** **  *******  **  PROGRAM STARTED IN /gxfs_work/cau/suphc355/homologes/HX/
                                           PP/Cl

 CP2K| version string:                 CP2K version 2024.1 (Development Version)
 CP2K| source code revision number:                                  git:15182a3
 CP2K| cp2kflags: omp libint fftw3 libxc libgrpp parallel mpi_f08 scalapack cosm
 CP2K|            a xsmm spglib mkl
 CP2K| is freely available from                            https://www.cp2k.org/
 CP2K| Program compiled at                           Di 9. Jan 09:05:01 CET 2024
 CP2K| Program compiled on                                           nesh-login2
 CP2K| Program compiled for                                                local
 CP2K| Data directory path            /gxfs_home/cau/suphc355/software/cp2k/data
 CP2K| Input file name                                               PP_quad.inp
 
 GLOBAL| Force Environment number                                              1
 GLOBAL| Basis set file name                                 ../../../basis_quad
 GLOBAL| Potential file name                                  GTH_SOC_POTENTIALS
 GLOBAL| MM Potential file name                                     MM_POTENTIAL
 GLOBAL| Coordinate file name                                            opt.xyz
 GLOBAL| Method name                                                        CP2K
 GLOBAL| Project name                                                HCl_PP_quad
 GLOBAL| Run type                                                         ENERGY
 GLOBAL| FFT library                                                       FFTW3
 GLOBAL| Diagonalization library                                       ScaLAPACK
 GLOBAL| DGEMM library                                                      BLAS
 GLOBAL| Orthonormality check for eigenvectors                          DISABLED
 GLOBAL| Matrix multiplication library                                     COSMA
 GLOBAL| All-to-all communication in single precision                          F
 GLOBAL| FFTs using library dependent lengths                                  F
 GLOBAL| Grid backend                                                       AUTO
 GLOBAL| Global print level                                               MEDIUM
 GLOBAL| MPI I/O enabled                                                       T
 GLOBAL| Total number of message passing processes                           128
 GLOBAL| Number of threads for this process                                    2
 GLOBAL| This output is from process                                           0
 GLOBAL| Stack size for threads created by OpenMP (OMP_STACKSIZE)        default
 GLOBAL| CPU model name                Intel(R) Xeon(R) Gold 6226R CPU @ 2.90GHz
 GLOBAL| CPUID                                                              1003

 MEMORY| system memory details [Kb]
 MEMORY|                        rank 0           min           max       average
 MEMORY| MemTotal            196683224     196683224     196683224     196683224
 MEMORY| MemFree             175159904     175159904     175447792     175324772
 MEMORY| Buffers                867676        623320        867676        728265
 MEMORY| Cached                1501984       1501920       1723408       1593198
 MEMORY| Slab                   797192        708560        797192        745429
 MEMORY| SReclaimable           224944        208268        237916        226907
 MEMORY| MemLikelyFree       177754508     177754508     177965960     177873142


 *** Fundamental physical constants (SI units) ***

 *** Literature: B. J. Mohr and B. N. Taylor,
 ***             CODATA recommended values of the fundamental physical
 ***             constants: 2006, Web Version 5.1
 ***             http://physics.nist.gov/constants

 Speed of light in vacuum [m/s]                             2.99792458000000E+08
 Magnetic constant or permeability of vacuum [N/A**2]       1.25663706143592E-06
 Electric constant or permittivity of vacuum [F/m]          8.85418781762039E-12
 Planck constant (h) [J*s]                                  6.62606896000000E-34
 Planck constant (h-bar) [J*s]                              1.05457162825177E-34
 Elementary charge [C]                                      1.60217648700000E-19
 Electron mass [kg]                                         9.10938215000000E-31
 Electron g factor [ ]                                     -2.00231930436220E+00
 Proton mass [kg]                                           1.67262163700000E-27
 Fine-structure constant                                    7.29735253760000E-03
 Rydberg constant [1/m]                                     1.09737315685270E+07
 Avogadro constant [1/mol]                                  6.02214179000000E+23
 Boltzmann constant [J/K]                                   1.38065040000000E-23
 Atomic mass unit [kg]                                      1.66053878200000E-27
 Bohr radius [m]                                            5.29177208590000E-11

 *** Conversion factors ***

 [u] -> [a.u.]                                              1.82288848426455E+03
 [Angstrom] -> [Bohr] = [a.u.]                              1.88972613288564E+00
 [a.u.] = [Bohr] -> [Angstrom]                              5.29177208590000E-01
 [a.u.] -> [s]                                              2.41888432650478E-17
 [a.u.] -> [fs]                                             2.41888432650478E-02
 [a.u.] -> [J]                                              4.35974393937059E-18
 [a.u.] -> [N]                                              8.23872205491840E-08
 [a.u.] -> [K]                                              3.15774647902944E+05
 [a.u.] -> [kJ/mol]                                         2.62549961709828E+03
 [a.u.] -> [kcal/mol]                                       6.27509468713739E+02
 [a.u.] -> [Pa]                                             2.94210107994716E+13
 [a.u.] -> [bar]                                            2.94210107994716E+08
 [a.u.] -> [atm]                                            2.90362800883016E+08
 [a.u.] -> [eV]                                             2.72113838565563E+01
 [a.u.] -> [Hz]                                             6.57968392072181E+15
 [a.u.] -> [1/cm] (wave numbers)                            2.19474631370540E+05
 [a.u./Bohr**2] -> [1/cm]                                   5.14048714338585E+03
 

 CELL_TOP| Volume [angstrom^3]:                                       512.000000
 CELL_TOP| Vector a [angstrom     8.000     0.000     0.000   |a| =     8.000000
 CELL_TOP| Vector b [angstrom     0.000     8.000     0.000   |b| =     8.000000
 CELL_TOP| Vector c [angstrom     0.000     0.000     8.000   |c| =     8.000000
 CELL_TOP| Angle (b,c), alpha [degree]:                                90.000000
 CELL_TOP| Angle (a,c), beta  [degree]:                                90.000000
 CELL_TOP| Angle (a,b), gamma [degree]:                                90.000000
 CELL_TOP| Numerically orthorhombic:                                         YES
 CELL_TOP| Periodicity                                                      NONE
 
 GENERATE|  Preliminary Number of Bonds generated:                             0
 GENERATE|  Achieved consistency in connectivity generation.

 CELL| Volume [angstrom^3]:                                           512.000000
 CELL| Vector a [angstrom]:       8.000     0.000     0.000   |a| =     8.000000
 CELL| Vector b [angstrom]:       0.000     8.000     0.000   |b| =     8.000000
 CELL| Vector c [angstrom]:       0.000     0.000     8.000   |c| =     8.000000
 CELL| Angle (b,c), alpha [degree]:                                    90.000000
 CELL| Angle (a,c), beta  [degree]:                                    90.000000
 CELL| Angle (a,b), gamma [degree]:                                    90.000000
 CELL| Numerically orthorhombic:                                             YES
 CELL| Periodicity                                                          NONE

 CELL_REF| Volume [angstrom^3]:                                       512.000000
 CELL_REF| Vector a [angstrom     8.000     0.000     0.000   |a| =     8.000000
 CELL_REF| Vector b [angstrom     0.000     8.000     0.000   |b| =     8.000000
 CELL_REF| Vector c [angstrom     0.000     0.000     8.000   |c| =     8.000000
 CELL_REF| Angle (b,c), alpha [degree]:                                90.000000
 CELL_REF| Angle (a,c), beta  [degree]:                                90.000000
 CELL_REF| Angle (a,b), gamma [degree]:                                90.000000
 CELL_REF| Numerically orthorhombic:                                         YES
 CELL_REF| Periodicity                                                      NONE

 *******************************************************************************
 *******************************************************************************
 **                                                                           **
 **     #####                         ##              ##                      **
 **    ##   ##            ##          ##              ##                      **
 **   ##     ##                       ##            ######                    **
 **   ##     ##  ##   ##  ##   #####  ##  ##   ####   ##    #####    #####    **
 **   ##     ##  ##   ##  ##  ##      ## ##   ##      ##   ##   ##  ##   ##   **
 **   ##  ## ##  ##   ##  ##  ##      ####     ###    ##   ######   ######    **
 **    ##  ###   ##   ##  ##  ##      ## ##      ##   ##   ##       ##        **
 **     #######   #####   ##   #####  ##  ##  ####    ##    #####   ##        **
 **           ##                                                    ##        **
 **                                                                           **
 **                                                ... make the atoms dance   **
 **                                                                           **
 **            Copyright (C) by CP2K developers group (2000-2024)             **
 **                      J. Chem. Phys. 152, 194103 (2020)                    **
 **                                                                           **
 *******************************************************************************

 DFT| Spin restricted Kohn-Sham (RKS) calculation                            RKS
 DFT| Multiplicity                                                             1
 DFT| Number of spin states                                                    1
 DFT| Charge                                                                   0
 DFT| Self-interaction correction (SIC)                                       NO
 DFT| Cutoffs: density                                              1.000000E-10
 DFT|          gradient                                             1.000000E-10
 DFT|          tau                                                  1.000000E-10
 DFT|          cutoff_smoothing_range                               0.000000E+00
 DFT| XC density smoothing                                                  NONE
 DFT| XC derivatives                                                          PW

 FUNCTIONAL| PBE:
 FUNCTIONAL| J.P.Perdew, K.Burke, M.Ernzerhof, Phys. Rev. Letter, vol. 77, n 18,
 FUNCTIONAL|  pp. 3865-3868, (1996) {spin unpolarized}                          


 QS| Method:                                                                 GPW
 QS| Density plane wave grid type                        NON-SPHERICAL FULLSPACE
 QS| Number of grid levels:                                                    5
 QS| Density cutoff [a.u.]:                                                600.0
 QS| Multi grid cutoff [a.u.]: 1) grid level                               600.0
 QS|                           2) grid level                               200.0
 QS|                           3) grid level                                66.7
 QS|                           4) grid level                                22.2
 QS|                           5) grid level                                 7.4
 QS| Grid level progression factor:                                          3.0
 QS| Relative density cutoff [a.u.]:                                        40.0
 QS| Interaction thresholds: eps_pgf_orb:                                1.0E-30
 QS|                         eps_filter_matrix:                          0.0E+00
 QS|                         eps_core_charge:                            1.0E-17
 QS|                         eps_rho_gspace:                             1.0E-15
 QS|                         eps_rho_rspace:                             1.0E-15
 QS|                         eps_gvg_rspace:                             3.2E-08
 QS|                         eps_ppl:                                    1.0E-02
 QS|                         eps_ppnl:                                   3.2E-10


 ATOMIC KIND INFORMATION

  1. Atomic kind: Cl                                    Number of atoms:       1

     Orbital Basis Set                                             aug-QZV2P-GTH

       Number of orbital shell sets:                                           4
       Number of orbital shells:                                              12
       Number of primitive Cartesian functions:                               10
       Number of Cartesian basis functions:                                   32
       Number of spherical basis functions:                                   30
       Norm type:                                                              2

       Normalised Cartesian orbitals:

                        Set   Shell   Orbital            Exponent    Coefficient

                          1       1    3s                4.739069       0.105336
                                                         2.566451      -0.516383
                                                         1.116824       0.031344
                                                         0.500732       0.266884
                                                         0.209222       0.105940
                                                         0.081808       0.005806

                          1       2    4s                4.739069       0.000000
                                                         2.566451       0.000000
                                                         1.116824       0.000000
                                                         0.500732       0.424242
                                                         0.209222       0.000000
                                                         0.081808       0.000000

                          1       3    5s                4.739069       0.000000
                                                         2.566451       0.000000
                                                         1.116824       0.000000
                                                         0.500732       0.000000
                                                         0.209222       0.220478
                                                         0.081808       0.000000

                          1       4    6s                4.739069       0.000000
                                                         2.566451       0.000000
                                                         1.116824       0.000000
                                                         0.500732       0.000000
                                                         0.209222       0.000000
                                                         0.081808       0.109020

                          1       5    4px               4.739069      -0.183676
                                                         2.566451      -0.198587
                                                         1.116824       0.316403
                                                         0.500732       0.255952
                                                         0.209222       0.082845
                                                         0.081808       0.009005
                          1       5    4py               4.739069      -0.183676
                                                         2.566451      -0.198587
                                                         1.116824       0.316403
                                                         0.500732       0.255952
                                                         0.209222       0.082845
                                                         0.081808       0.009005
                          1       5    4pz               4.739069      -0.183676
                                                         2.566451      -0.198587
                                                         1.116824       0.316403
                                                         0.500732       0.255952
                                                         0.209222       0.082845
                                                         0.081808       0.009005

                          1       6    5px               4.739069       0.000000
                                                         2.566451       0.000000
                                                         1.116824       0.000000
                                                         0.500732       0.600408
                                                         0.209222       0.000000
                                                         0.081808       0.000000
                          1       6    5py               4.739069       0.000000
                                                         2.566451       0.000000
                                                         1.116824       0.000000
                                                         0.500732       0.600408
                                                         0.209222       0.000000
                                                         0.081808       0.000000
                          1       6    5pz               4.739069       0.000000
                                                         2.566451       0.000000
                                                         1.116824       0.000000
                                                         0.500732       0.600408
                                                         0.209222       0.000000
                                                         0.081808       0.000000

                          1       7    6px               4.739069       0.000000
                                                         2.566451       0.000000
                                                         1.116824       0.000000
                                                         0.500732       0.000000
                                                         0.209222       0.201697
                                                         0.081808       0.000000
                          1       7    6py               4.739069       0.000000
                                                         2.566451       0.000000
                                                         1.116824       0.000000
                                                         0.500732       0.000000
                                                         0.209222       0.201697
                                                         0.081808       0.000000
                          1       7    6pz               4.739069       0.000000
                                                         2.566451       0.000000
                                                         1.116824       0.000000
                                                         0.500732       0.000000
                                                         0.209222       0.201697
                                                         0.081808       0.000000

                          1       8    7px               4.739069       0.000000
                                                         2.566451       0.000000
                                                         1.116824       0.000000
                                                         0.500732       0.000000
                                                         0.209222       0.000000
                                                         0.081808       0.062364
                          1       8    7py               4.739069       0.000000
                                                         2.566451       0.000000
                                                         1.116824       0.000000
                                                         0.500732       0.000000
                                                         0.209222       0.000000
                                                         0.081808       0.062364
                          1       8    7pz               4.739069       0.000000
                                                         2.566451       0.000000
                                                         1.116824       0.000000
                                                         0.500732       0.000000
                                                         0.209222       0.000000
                                                         0.081808       0.062364

                          2       1    3dx2              1.046000       1.780696
                                                         0.344000       0.000000
                          2       1    3dxy              1.046000       3.084257
                                                         0.344000       0.000000
                          2       1    3dxz              1.046000       3.084257
                                                         0.344000       0.000000
                          2       1    3dy2              1.046000       1.780696
                                                         0.344000       0.000000
                          2       1    3dyz              1.046000       3.084257
                                                         0.344000       0.000000
                          2       1    3dz2              1.046000       1.780696
                                                         0.344000       0.000000

                          2       2    4dx2              1.046000       0.000000
                                                         0.344000       0.254324
                          2       2    4dxy              1.046000       0.000000
                                                         0.344000       0.440501
                          2       2    4dxz              1.046000       0.000000
                                                         0.344000       0.440501
                          2       2    4dy2              1.046000       0.000000
                                                         0.344000       0.254324
                          2       2    4dyz              1.046000       0.000000
                                                         0.344000       0.440501
                          2       2    4dz2              1.046000       0.000000
                                                         0.344000       0.254324

                          3       1    3s                0.051900       0.077497

                          4       1    3px               0.037600       0.023601
                          4       1    3py               0.037600       0.023601
                          4       1    3pz               0.037600       0.023601

       Atomic covalent radius [Angstrom]:                                  0.990

       Atomic van der Waals radius [Angstrom]:                             1.750

     GTH Potential information for                                       GTH-PBE

       Description:                       Goedecker-Teter-Hutter pseudopotential
                                           Goedecker et al., PRB 54, 1703 (1996)
                                          Hartwigsen et al., PRB 58, 3641 (1998)
                                                      Krack, TCA 114, 145 (2005)

       Gaussian exponent of the core charge distribution:               2.974420
       Electronic configuration (s p d ...):                               2   5

       Parameters of the local part of the GTH pseudopotential:

                          rloc        C1          C2          C3          C4
                        0.410000   -6.392082

       Parameters of the non-local part of the GTH (SOC) pseudopotential:

                   l      r(l)      h(i,j,l)
                                    k(i,j,l)
                   0    0.339539   15.218990   -4.934523
                                   -4.934523    6.370442
                   1    0.378474    4.338775    0.000000
                                    0.000000    0.000000
                                    0.045289   -0.032578
                                   -0.032578    0.038547

  2. Atomic kind: H                                     Number of atoms:       1

     Orbital Basis Set                                             aug-QZV2P-GTH

       Number of orbital shell sets:                                           4
       Number of orbital shells:                                               8
       Number of primitive Cartesian functions:                               10
       Number of Cartesian basis functions:                                   14
       Number of spherical basis functions:                                   14
       Norm type:                                                              2

       Normalised Cartesian orbitals:

                        Set   Shell   Orbital            Exponent    Coefficient

                          1       1    1s               12.535095       0.054279
                                                         4.549154       0.076380
                                                         1.668519       0.105441
                                                         0.652385       0.119104
                                                         0.273301       0.109581
                                                         0.139061       0.053929

                          1       2    2s               12.535095       0.000000
                                                         4.549154       0.000000
                                                         1.668519       0.000000
                                                         0.652385       0.517354
                                                         0.273301       0.000000
                                                         0.139061       0.000000

                          1       3    3s               12.535095       0.000000
                                                         4.549154       0.000000
                                                         1.668519       0.000000
                                                         0.652385       0.000000
                                                         0.273301       0.269396
                                                         0.139061       0.000000

                          1       4    4s               12.535095       0.000000
                                                         4.549154       0.000000
                                                         1.668519       0.000000
                                                         0.652385       0.000000
                                                         0.273301       0.000000
                                                         0.139061       0.162298

                          2       1    2px               1.407000       2.184277
                                                         0.388000       0.000000
                          2       1    2py               1.407000       2.184277
                                                         0.388000       0.000000
                          2       1    2pz               1.407000       2.184277
                                                         0.388000       0.000000

                          2       2    3px               1.407000       0.000000
                                                         0.388000       0.436495
                          2       2    3py               1.407000       0.000000
                                                         0.388000       0.436495
                          2       2    3pz               1.407000       0.000000
                                                         0.388000       0.436495

                          3       1    5s                0.023630       0.042954

                          4       1    4px               0.084800       0.065228
                          4       1    4py               0.084800       0.065228
                          4       1    4pz               0.084800       0.065228

       Atomic covalent radius [Angstrom]:                                  0.320

       Atomic van der Waals radius [Angstrom]:                             1.090

     GTH Potential information for                                       GTH-PBE

       Description:                       Goedecker-Teter-Hutter pseudopotential
                                           Goedecker et al., PRB 54, 1703 (1996)
                                          Hartwigsen et al., PRB 58, 3641 (1998)
                                                      Krack, TCA 114, 145 (2005)

       Gaussian exponent of the core charge distribution:              12.500000
       Electronic configuration (s p d ...):                                   1

       Parameters of the local part of the GTH pseudopotential:

                          rloc        C1          C2          C3          C4
                        0.200000   -4.178900    0.724463


 MOLECULE KIND INFORMATION


 All atoms are their own molecule, skipping detailed information


 TOTAL NUMBERS AND MAXIMUM NUMBERS

  Total number of            - Atomic kinds:                                   2
                             - Atoms:                                          2
                             - Shell sets:                                     8
                             - Shells:                                        20
                             - Primitive Cartesian functions:                 20
                             - Cartesian basis functions:                     46
                             - Spherical basis functions:                     44

  Maximum angular momentum of- Orbital basis functions:                        2
                             - Local part of the GTH pseudopotential:          2
                             - Non-local part of the GTH pseudopotential:      3


 MODULE QUICKSTEP: ATOMIC COORDINATES IN ANGSTROM

   Atom Kind Element         X             Y             Z       Z(eff)     Mass
      1    1 Cl   17      3.355419      4.000000      4.000000   7.0000  35.4530
      2    2 H     1      4.644581      4.000000      4.000000   1.0000   1.0079



 SCF PARAMETERS         Density guess:                                    ATOMIC
                        --------------------------------------------------------
                        max_scf:                                              20
                        max_scf_history:                                       0
                        max_diis:                                              4
                        --------------------------------------------------------
                        eps_scf:                                        1.00E-07
                        eps_scf_history:                                0.00E+00
                        eps_diis:                                       1.00E-01
                        eps_eigval:                                     1.00E-05
                        --------------------------------------------------------
                        level_shift [a.u.]:                             0.000000
                        --------------------------------------------------------
                        Outer loop SCF in use 
                        No variables optimised in outer loop
                        eps_scf                                         1.00E-07
                        max_scf                                               50
                        No outer loop optimization
                        step_size                                       5.00E-01

 PW_GRID| Information for grid number                                          1
 PW_GRID| Grid distributed over                                   128 processors
 PW_GRID| Real space group dimensions                                   128    1
 PW_GRID| the grid is blocked:                                                NO
 PW_GRID| Cutoff [a.u.]                                                   1200.0
 PW_GRID| spherical cutoff:                                                   NO
 PW_GRID|   Bounds   1           -120     119                Points:         240
 PW_GRID|   Bounds   2           -120     119                Points:         240
 PW_GRID|   Bounds   3           -120     119                Points:         240
 PW_GRID| Volume element (a.u.^3)  0.2499E-03     Volume (a.u.^3)      3455.1473
 PW_GRID| Grid span                                                    FULLSPACE
 PW_GRID|   Distribution                         Average         Max         Min
 PW_GRID|   G-Vectors                           108000.0      108000      108000
 PW_GRID|   G-Rays                                 450.0         450         450
 PW_GRID|   Real Space Points                   108000.0      115200       57600

 PW_GRID| Information for grid number                                          2
 PW_GRID| Number of the reference grid                                         1
 PW_GRID| Grid distributed over                                   128 processors
 PW_GRID| Real space group dimensions                                   128    1
 PW_GRID| the grid is blocked:                                                NO
 PW_GRID| Cutoff [a.u.]                                                    600.0
 PW_GRID| spherical cutoff:                                                   NO
 PW_GRID|   Bounds   1            -90      89                Points:         180
 PW_GRID|   Bounds   2            -90      89                Points:         180
 PW_GRID|   Bounds   3            -90      89                Points:         180
 PW_GRID| Volume element (a.u.^3)  0.5924E-03     Volume (a.u.^3)      3455.1473
 PW_GRID| Grid span                                                    FULLSPACE
 PW_GRID|   Distribution                         Average         Max         Min
 PW_GRID|   G-Vectors                            45562.5       45720       45360
 PW_GRID|   G-Rays                                 253.1         254         252
 PW_GRID|   Real Space Points                    45562.5       64800       32400

 PW_GRID| Information for grid number                                          3
 PW_GRID| Number of the reference grid                                         2
 PW_GRID| Grid distributed over                                   128 processors
 PW_GRID| Real space group dimensions                                     8   16
 PW_GRID| the grid is blocked:                                                NO
 PW_GRID| Cutoff [a.u.]                                                    200.0
 PW_GRID| spherical cutoff:                                                   NO
 PW_GRID|   Bounds   1            -50      49                Points:         100
 PW_GRID|   Bounds   2            -50      49                Points:         100
 PW_GRID|   Bounds   3            -50      49                Points:         100
 PW_GRID| Volume element (a.u.^3)  0.3455E-02     Volume (a.u.^3)      3455.1473
 PW_GRID| Grid span                                                    FULLSPACE
 PW_GRID|   Distribution                         Average         Max         Min
 PW_GRID|   G-Vectors                             7812.5        7900        7700
 PW_GRID|   G-Rays                                  78.1          79          77
 PW_GRID|   Real Space Points                     7812.5        9100        7200

 PW_GRID| Information for grid number                                          4
 PW_GRID| Number of the reference grid                                         2
 PW_GRID| Grid distributed over                                   128 processors
 PW_GRID| Real space group dimensions                                     8   16
 PW_GRID| the grid is blocked:                                                NO
 PW_GRID| Cutoff [a.u.]                                                     66.7
 PW_GRID| spherical cutoff:                                                   NO
 PW_GRID|   Bounds   1            -30      29                Points:          60
 PW_GRID|   Bounds   2            -30      29                Points:          60
 PW_GRID|   Bounds   3            -30      29                Points:          60
 PW_GRID| Volume element (a.u.^3)  0.1600E-01     Volume (a.u.^3)      3455.1473
 PW_GRID| Grid span                                                    FULLSPACE
 PW_GRID|   Distribution                         Average         Max         Min
 PW_GRID|   G-Vectors                             1687.5        1800        1620
 PW_GRID|   G-Rays                                  28.1          30          27
 PW_GRID|   Real Space Points                     1687.5        1920        1260

 PW_GRID| Information for grid number                                          5
 PW_GRID| Number of the reference grid                                         2
 PW_GRID| Grid distributed over                                   128 processors
 PW_GRID| Real space group dimensions                                     8   16
 PW_GRID| the grid is blocked:                                                NO
 PW_GRID| Cutoff [a.u.]                                                     22.2
 PW_GRID| spherical cutoff:                                                   NO
 PW_GRID|   Bounds   1            -18      17                Points:          36
 PW_GRID|   Bounds   2            -18      17                Points:          36
 PW_GRID|   Bounds   3            -18      17                Points:          36
 PW_GRID| Volume element (a.u.^3)  0.7406E-01     Volume (a.u.^3)      3455.1473
 PW_GRID| Grid span                                                    FULLSPACE
 PW_GRID|   Distribution                         Average         Max         Min
 PW_GRID|   G-Vectors                              364.5         396         324
 PW_GRID|   G-Rays                                  10.1          11           9
 PW_GRID|   Real Space Points                      364.5         540         288

 PW_GRID| Information for grid number                                          6
 PW_GRID| Number of the reference grid                                         2
 PW_GRID| Grid distributed over                                   128 processors
 PW_GRID| Real space group dimensions                                     8   16
 PW_GRID| the grid is blocked:                                                NO
 PW_GRID| Cutoff [a.u.]                                                      7.4
 PW_GRID| spherical cutoff:                                                   NO
 PW_GRID|   Bounds   1            -10       9                Points:          20
 PW_GRID|   Bounds   2            -10       9                Points:          20
 PW_GRID|   Bounds   3            -10       9                Points:          20
 PW_GRID| Volume element (a.u.^3)  0.4319         Volume (a.u.^3)      3455.1473
 PW_GRID| Grid span                                                    FULLSPACE
 PW_GRID|   Distribution                         Average         Max         Min
 PW_GRID|   G-Vectors                               62.5          80          40
 PW_GRID|   G-Rays                                   3.1           4           2
 PW_GRID|   Real Space Points                       62.5         120          40

 POISSON| Solver                                          Martyna-Tuckerman (MT)
 POISSON| MT| Alpha                                                        7.000
 POISSON| MT| Relative cutoff                                                2.0
 POISSON| Periodicity                                                       NONE

 RS_GRID| Information for grid number                                          2
 RS_GRID|   Bounds   1            -90      89                Points:         180
 RS_GRID|   Bounds   2            -90      89                Points:         180
 RS_GRID|   Bounds   3            -90      89                Points:         180
 RS_GRID| Real space distribution over                                  8 groups
 RS_GRID| Real space distribution along direction                              2
 RS_GRID| Border size                                                         45
 RS_GRID| Real space distribution over                                 16 groups
 RS_GRID| Real space distribution along direction                              3
 RS_GRID| Border size                                                         45
 RS_GRID|   Distribution                         Average         Max         Min
 RS_GRID|   Planes                                 112.5         113         112
 RS_GRID|   Distribution                         Average         Max         Min
 RS_GRID|   Planes                                 101.2         102         101

 RS_GRID| Information for grid number                                          3
 RS_GRID|   Bounds   1            -50      49                Points:         100
 RS_GRID|   Bounds   2            -50      49                Points:         100
 RS_GRID|   Bounds   3            -50      49                Points:         100
 RS_GRID| Real space fully replicated
 RS_GRID| Group size                                                           1

 RS_GRID| Information for grid number                                          4
 RS_GRID|   Bounds   1            -30      29                Points:          60
 RS_GRID|   Bounds   2            -30      29                Points:          60
 RS_GRID|   Bounds   3            -30      29                Points:          60
 RS_GRID| Real space fully replicated
 RS_GRID| Group size                                                           1

 RS_GRID| Information for grid number                                          5
 RS_GRID|   Bounds   1            -18      17                Points:          36
 RS_GRID|   Bounds   2            -18      17                Points:          36
 RS_GRID|   Bounds   3            -18      17                Points:          36
 RS_GRID| Real space fully replicated
 RS_GRID| Group size                                                           1

 RS_GRID| Information for grid number                                          6
 RS_GRID|   Bounds   1            -10       9                Points:          20
 RS_GRID|   Bounds   2            -10       9                Points:          20
 RS_GRID|   Bounds   3            -10       9                Points:          20
 RS_GRID| Real space fully replicated
 RS_GRID| Group size                                                           1

 Number of electrons:                                                          8
 Number of occupied orbitals:                                                  4
 Number of molecular orbitals:                                                 4

 Number of orbital functions:                                                 44
 Number of independent orbital functions:                                     44

 Extrapolation method: initial_guess

 Atomic guess: The first density matrix is obtained in terms of atomic orbitals
               and electronic configurations assigned to each atomic kind

 Guess for atomic kind: Cl

 Electronic structure
    Total number of core electrons                                         10.00
    Total number of valence electrons                                       7.00
    Total number of electrons                                              17.00
    Multiplicity                                                   not specified
    S   [  2.00  2.00] 2.00
    P   [  6.00] 5.00
 

 *******************************************************************************
                  Iteration          Convergence                     Energy [au]
 *******************************************************************************
                          1        0.294261E-01                 -14.777738293512
                          2        0.157700E-01                 -14.777884545854
                          3        0.226056E-02                 -14.777984077567
                          4        0.424851E-04                 -14.777985945157
                          5        0.521191E-06                 -14.777985945914

 Energy components [Hartree]           Total Energy ::          -14.777985945914
                                        Band Energy ::           -2.974917954657
                                     Kinetic Energy ::            5.567062954840
                                   Potential Energy ::          -20.345048900754
                                      Virial (-V/T) ::            3.654539038950
                                        Core Energy ::          -24.682191373889
                                          XC Energy ::           -2.742815510629
                                     Coulomb Energy ::           12.647020938603
                       Total Pseudopotential Energy ::          -30.308419329287
                       Local Pseudopotential Energy ::          -33.453843488998
                    Nonlocal Pseudopotential Energy ::            3.145424159710
                                        Confinement ::            0.591650005585

 Orbital energies  State     L     Occupation   Energy[a.u.]          Energy[eV]

                       1     0          2.000      -0.741540          -20.178326
 
                       1     1          5.000      -0.298368           -8.118996
 

 Total Electron Density at R=0:                                         0.000004

 Guess for atomic kind: H

 Electronic structure
    Total number of core electrons                                          0.00
    Total number of valence electrons                                       1.00
    Total number of electrons                                               1.00
    Multiplicity                                                   not specified
    S      1.00
 

 *******************************************************************************
                  Iteration          Convergence                     Energy [au]
 *******************************************************************************
                          1        0.414208E-02                  -0.424528229559
                          2        0.314168E-03                  -0.424550111617
                          3        0.369321E-04                  -0.424550384070
                          4        0.144789E-06                  -0.424550386562

 Energy components [Hartree]           Total Energy ::           -0.424550386562
                                        Band Energy ::           -0.199016913709
                                     Kinetic Energy ::            0.461279695514
                                   Potential Energy ::           -0.885830082076
                                      Virial (-V/T) ::            1.920375188178
                                        Core Energy ::           -0.479748082297
                                          XC Energy ::           -0.244575529316
                                     Coulomb Energy ::            0.299773225051
                       Total Pseudopotential Energy ::           -0.959966278400
                       Local Pseudopotential Energy ::           -0.959966278400
                    Nonlocal Pseudopotential Energy ::            0.000000000000
                                        Confinement ::            0.189385005893

 Orbital energies  State     L     Occupation   Energy[a.u.]          Energy[eV]

                       1     0          1.000      -0.199017           -5.415526
 

 Total Electron Density at R=0:                                         0.232501
 Re-scaling the density matrix to get the right number of electrons
                  # Electrons              Trace(P)               Scaling factor
                            8                 8.000                        1.000


 SCF WAVEFUNCTION OPTIMIZATION

  ----------------------------------- OT ---------------------------------------
  Minimizer      : DIIS                : direct inversion
                                         in the iterative subspace
                                         using   7 DIIS vectors
                                         safer DIIS on
  Preconditioner : FULL_ALL            : diagonalization, state selective
  Precond_solver : DEFAULT
  stepsize       :    0.15000000                  energy_gap     :    0.08000000
  eps_taylor     :   0.10000E-15                  max_taylor     :             4
  ----------------------------------- OT ---------------------------------------

  Step     Update method      Time    Convergence         Total energy    Change
  ------------------------------------------------------------------------------
     1 OT DIIS     0.15E+00   32.8     0.14055761       -15.3634785391 -1.54E+01
     2 OT DIIS     0.15E+00   23.5     0.10577184       -15.5149388142 -1.51E-01
     3 OT DIIS     0.15E+00   24.5     0.03583600       -15.5749277527 -6.00E-02
     4 OT DIIS     0.15E+00   24.8     0.00589832       -15.5857706712 -1.08E-02
     5 OT DIIS     0.15E+00   24.6     0.00365814       -15.5863202122 -5.50E-04
     6 OT DIIS     0.15E+00   25.1     0.00045824       -15.5864125508 -9.23E-05
     7 OT DIIS     0.15E+00   25.1     0.00023087       -15.5864160114 -3.46E-06
     8 OT DIIS     0.15E+00   24.3     0.00004705       -15.5864164908 -4.79E-07
     9 OT DIIS     0.15E+00   23.5     0.00000652       -15.5864165204 -2.96E-08
    10 OT DIIS     0.15E+00   24.2     0.00000209       -15.5864165213 -8.78E-10
    11 OT DIIS     0.15E+00   24.5     0.00000038       -15.5864165214 -1.03E-10
    12 OT DIIS     0.15E+00   23.9     0.00000010       -15.5864165214 -3.01E-12

  *** SCF run converged in    12 steps ***


  Electronic density on regular grids:         -8.0000000000        0.0000000000
  Core density on regular grids:                8.0000000000       -0.0000000000
  Total charge density on r-space grids:        0.0000000000
  Total charge density g-space grids:           0.0000000000

  Overlap energy of the core charge distribution:               0.00000026654655
  Self energy of the core charge distribution:                -35.12424175623532
  Core Hamiltonian energy:                                      8.21504418323971
  Hartree energy:                                              14.55784409930161
  Exchange-correlation energy:                                 -3.23506331421193

  Total energy:                                               -15.58641652135938

  outer SCF iter =    1 RMS gradient =   0.98E-07 energy =        -15.5864165214
  outer SCF loop converged in   1 iterations or   12 steps


 !-----------------------------------------------------------------------------!
                     Mulliken Population Analysis

 #  Atom  Element  Kind  Atomic population                           Net charge
       1     Cl       1          7.084885                             -0.084885
       2     H        2          0.915115                              0.084885
 # Total charge                              8.000000                  0.000000

 !-----------------------------------------------------------------------------!

 !-----------------------------------------------------------------------------!
                           Hirshfeld Charges

  #Atom  Element  Kind  Ref Charge     Population                    Net charge
      1       Cl     1       7.000          7.576                        -0.576
      2       H      2       1.000          0.423                         0.577

  Total Charge                                                            0.001
 !-----------------------------------------------------------------------------!

 *******************************************************************************
 **                                                                           **
 **         ######## #######   #######   ######## #######  ########           **
 **            ##    ##     ## ##     ## ##       ##   ##     ##              **
 **            ##    ##     ## ##     ## ######   #######     ##              **
 **            ##    ##     ## ##     ## ##       ##          ##              **
 **            ##    #######   #######   ##       ##          ##              **
 **                                                                           **
 *******************************************************************************
 KERNEL|                                                                    FULL
 FUNCTIONAL| PBE:
 FUNCTIONAL| J.P.Perdew, K.Burke, M.Ernzerhof, Phys. Rev. Letter, vol. 77, n 18,
 FUNCTIONAL|  pp. 3865-3868, (1996) {spin unpolarized}                          
 KERNEL| Spin symmetry of excitations                                    Triplet
 TDDFPT| Number of states calculated                                          10
 TDDFPT| Number of Davidson iterations                                        20
 TDDFPT| Davidson iteration convergence                                0.100E-07
 TDDFPT| Max. number of Krylov space vectors                                  60
 TDDFPT| Molecular Orbitals:        Spin       AOs       Occ      Virt     Total
 TDDFPT|                               1        44         4        40        44

 *******************************************************************************
 **                                                                           **
 **                            ####### ####### #######                        **
 **                        #   ##      ##   ## ##                             **
 **                       ###  ######  ##   ## ##                             **
 **                        #       ##  ##   ## ##                             **
 **                            ######  ####### #######                        **
 **                 Based on the xas module from Augustin Bussy               **
 *******************************************************************************
 
 -------------------------------------------------------------------------------
 -                      TDDFPT TRIPLET ENERGIES                                 -
 -------------------------------------------------------------------------------
 
 -------------------------------------------------------------------------------
 -                            TDDFPT Initial Guess                             -
 -------------------------------------------------------------------------------
          State         Occupied      ->      Virtual          Excitation
          number         orbital              orbital          energy (eV)
 -------------------------------------------------------------------------------
             1                4                    5              6.86461
             2                3                    5              6.86461
             3                4                    6              8.70437
             4                3                    6              8.70437
             5                4                    7              9.20213
             6                3                    7              9.20213
             7                4                    8              9.43989
             8                3                    8              9.43989
             9                4                    9              9.43989
            10                3                    9              9.43989

      Number of active states:                                        160
 -------------------------------------------------------------------------------
 
 -------------------------------------------------------------------------------
 -                      TDDFPT WAVEFUNCTION OPTIMIZATION                       -
 -------------------------------------------------------------------------------

          Step            Time         Convergence           Conv. states
 -------------------------------------------------------------------------------

    State    Exc. energy (eV)      Convergence (eV)
        1       6.5660976            -2.9851E-01
        2       6.5660976            -2.9851E-01
        3       8.4606370            -2.4373E-01
        4       8.4606370            -2.4373E-01
        5       9.1024112            -9.9715E-02
        6       9.1024112            -9.9715E-02
        7       9.1345559            -3.0534E-01
        8       9.2672208            -1.7267E-01
        9       9.2713365            -1.6856E-01
       10       9.4398928            -1.8078E-08
 
             1           117.2          1.1221E-02                      1

    State    Exc. energy (eV)      Convergence (eV)
        1       6.5336050            -3.2493E-02
        2       6.5336052            -3.2492E-02
        3       8.4323060            -2.8331E-02
        4       8.4323169            -2.8320E-02
        5       9.0961909            -6.2203E-03
        6       9.0961909            -6.2203E-03
        7       9.1160295            -1.8526E-02
        8       9.2582340            -8.9868E-03
        9       9.2621586            -9.1779E-03
       10       9.4398928             1.5105E-15
 
             2           121.5          1.1941E-03                      1

    State    Exc. energy (eV)      Convergence (eV)
        1       6.5335900            -1.4975E-05
        2       6.5335900            -1.5175E-05
        3       8.4322861            -1.9869E-05
        4       8.4322861            -3.0787E-05
        5       9.0961754            -1.5434E-05
        6       9.0961755            -1.5433E-05
        7       9.1148701            -1.1593E-03
        8       9.2582171            -1.6865E-05
        9       9.2621412            -1.7450E-05
       10       9.4398928            -1.5105E-15
 
             3           125.7          4.2605E-05                      1

    State    Exc. energy (eV)      Convergence (eV)
        1       6.5335900            -3.7082E-09
        2       6.5335900            -2.6291E-09
        3       8.4322861            -9.6043E-09
        4       8.4322861            -1.1392E-08
        5       9.0961754            -6.7391E-08
        6       9.0961754            -6.9036E-08
        7       9.1147339            -1.3623E-04
        8       9.2582171            -8.1007E-08
        9       9.2621411            -7.7734E-08
       10       9.4398928            -3.0211E-15
 
             4           129.0          5.0062E-06                      9

    State    Exc. energy (eV)      Convergence (eV)
        1       6.5335900            -1.7288E-12
        2       6.5335900            -1.3776E-12
        3       8.4322861            -3.9908E-12
        4       8.4322861            -2.1208E-12
        5       9.0961754            -8.3110E-12
        6       9.0961754            -5.8428E-12
        7       9.1147329            -1.0371E-06
        8       9.2582171            -1.0723E-11
        9       9.2621411            -1.1865E-11
       10       9.4398928             1.5105E-15
 
             5           132.5          3.8113E-08                      9

    State    Exc. energy (eV)      Convergence (eV)
        1       6.5335900             7.5527E-16
        2       6.5335900             3.0211E-15
        3       8.4322861            -1.5105E-15
        4       8.4322861             0.0000E+00
        5       9.0961754             0.0000E+00
        6       9.0961754            -1.2084E-14
        7       9.1147329            -2.0197E-08
        8       9.2582171            -2.1903E-13
        9       9.2621411            -2.5679E-14
       10       9.4398928            -3.7159E-13
 
             6            85.8          7.4222E-10                     10
 ------------------------- Restart Davidson iterations -------------------------

    State    Exc. energy (eV)      Convergence (eV)
        1       6.5335900            -2.2658E-15
        2       6.5335900            -7.5527E-16
        3       8.4322861             1.5105E-15
        4       8.4322861             4.5316E-15
        5       9.0961754            -1.5105E-15
        6       9.0961754             7.5527E-15
        7       9.1147329             1.0574E-13
        8       9.2582171             4.3050E-13
        9       9.2621411             4.8337E-14
       10       9.4398928             7.3563E-13
 
             7            85.9          2.7034E-14                     10
 
 -------------------------------------------------------------------------------
 -  TDDFPT run converged in 7 iteration(s) 
 -------------------------------------------------------------------------------

 R-TDDFPT states of multiplicity 3
 Transition dipoles calculated using length formulation

         State    Excitation        Transition dipole (a.u.)        Oscillator
         number   energy (eV)       x           y           z     strength (a.u.)
         ------------------------------------------------------------------------
 TDDFPT|      1       6.53359   0.0000E+00  0.0000E+00  0.0000E+00   0.00000E+00
 TDDFPT|      2       6.53359   0.0000E+00  0.0000E+00  0.0000E+00   0.00000E+00
 TDDFPT|      3       8.43229   0.0000E+00  0.0000E+00  0.0000E+00   0.00000E+00
 TDDFPT|      4       8.43229   0.0000E+00  0.0000E+00  0.0000E+00   0.00000E+00
 TDDFPT|      5       9.09618   0.0000E+00  0.0000E+00  0.0000E+00   0.00000E+00
 TDDFPT|      6       9.09618   0.0000E+00  0.0000E+00  0.0000E+00   0.00000E+00
 TDDFPT|      7       9.11473   0.0000E+00  0.0000E+00  0.0000E+00   0.00000E+00
 TDDFPT|      8       9.25822   0.0000E+00  0.0000E+00  0.0000E+00   0.00000E+00
 TDDFPT|      9       9.26214   0.0000E+00  0.0000E+00  0.0000E+00   0.00000E+00
 TDDFPT|     10       9.43989   0.0000E+00  0.0000E+00  0.0000E+00   0.00000E+00

 TDDFPT : CheckSum  =  0.997495E+00
 
 -------------------------------------------------------------------------------
 -                            Excitation analysis                              -
 -------------------------------------------------------------------------------
        State             Occupied              Virtual             Excitation
        number             orbital              orbital             amplitude
 -------------------------------------------------------------------------------
             1   6.53359 eV
                                 4                    5               0.995182
                                 4                    6              -0.081720
             2   6.53359 eV
                                 3                    5              -0.995182
                                 3                    6               0.081720
             3   8.43229 eV
                                 4                    6              -0.993134
                                 4                    5              -0.083911
                                 4                   10               0.056856
             4   8.43229 eV
                                 3                    6              -0.993134
                                 3                    5              -0.083911
                                 3                   10               0.056856
             5   9.09618 eV
                                 4                    7               0.998896
             6   9.09618 eV
                                 3                    7              -0.998896
             7   9.11473 eV
                                 3                    8               0.703897
                                 4                    9              -0.703897
                                 2                    5               0.066496
             8   9.25822 eV
                                 4                    9              -0.545718
                                 3                    8              -0.545718
                                 4                    8              -0.449091
                                 3                    9               0.449091
             9   9.26214 eV
                                 4                    8               0.545703
                                 3                    9              -0.545703
                                 4                    9              -0.449078
                                 3                    8              -0.449078
            10   9.43989 eV
                                 3                    9              -0.706671
                                 4                    8              -0.706671
 -------------------------------------------------------------------------------
 
 -------------------------------------------------------------------------------
 -                            Natural Orbital analysis                         -
 -------------------------------------------------------------------------------
   STATE NR.      1             6.53359 eV
     Particle-Hole state: 1   Spin:1     Eigenvalue: 0.99873   Sum Eigv: 0.99873
   STATE NR.      2             6.53359 eV
     Particle-Hole state: 1   Spin:1     Eigenvalue: 0.99873   Sum Eigv: 0.99873
   STATE NR.      3             8.43229 eV
     Particle-Hole state: 1   Spin:1     Eigenvalue: 0.99897   Sum Eigv: 0.99897
   STATE NR.      4             8.43229 eV
[...]
 flops    14 x    32 x    30               107520       0.0%    100.0%      0.0%
 flops    30 x    32 x    14               107520       0.0%    100.0%      0.0%
 flops    44 x     4 x    14               172480       0.0%    100.0%      0.0%
 flops    30 x    32 x    30               230400       0.0%    100.0%      0.0%
 flops    44 x     4 x    30               369600       0.0%    100.0%      0.0%
 flops    14 x    14 x     4               459424       0.0%    100.0%      0.0%
 flops     4 x     4 x    14               917952       0.0%    100.0%      0.0%
 flops    14 x    30 x     4               984480       0.0%    100.0%      0.0%
 flops    14 x     4 x    14              1281056       0.0%    100.0%      0.0%
 flops     4 x     4 x    30              1967040       0.0%    100.0%      0.0%
 flops    30 x    30 x     4              2109600       0.0%    100.0%      0.0%
 flops    14 x     4 x    30              2745120       0.0%    100.0%      0.0%
 flops    30 x     4 x    14              2745120       0.0%    100.0%      0.0%
 flops    30 x     4 x    30              5882400       0.0%    100.0%      0.0%
 flops inhomo. stacks                           0       0.0%      0.0%      0.0%
 flops total                        20.352736E+06       0.0%    100.0%      0.0%
 flops max/rank                     13.855808E+06       0.0%    100.0%      0.0%
 matmuls inhomo. stacks                         0       0.0%      0.0%      0.0%
 matmuls total                               8510       0.0%    100.0%      0.0%
 number of processed stacks                  8510       0.0%    100.0%      0.0%
 average stack size                                     0.0       1.0       0.0
 marketing flops                    21.338624E+06
 -------------------------------------------------------------------------------
 # multiplications                           1202
 max memory usage/rank             568.172544E+06
 # max total images/rank                        2
 # max 3D layers                                1
 # MPI messages exchanged                 4461824
 MPI messages size (bytes):
  total size                       184.259072E+06
  min size                           0.000000E+00
  max size                          10.560000E+03
  average size                      41.296803E+00
 MPI breakdown and total messages size (bytes):
             size <=      128             4410336                   341888
       128 < size <=     8192               41348                 76838784
      8192 < size <=    32768               10140                107078400
     32768 < size <=   131072                   0                        0
    131072 < size <=  4194304                   0                        0
   4194304 < size <= 16777216                   0                        0
  16777216 < size                               0                        0
 -------------------------------------------------------------------------------

 *** WARNING in dbcsr_mm.F:291 :: Using a non-square number of MPI ranks ***
 *** might lead to poor performance. Used ranks: 128 Suggested: 121 256  ***

 -------------------------------------------------------------------------------
 -                                                                             -
 -                      DBCSR MESSAGE PASSING PERFORMANCE                      -
 -                                                                             -
 -------------------------------------------------------------------------------
 ROUTINE             CALLS      AVE VOLUME [Bytes]
 MP_Bcast               22                     12.
 MP_Allreduce         4925                      8.
 MP_Alltoall         17802                  36197.
 MP_ISend            76368                    254.
 MP_IRecv            74466                    107.
 -------------------------------------------------------------------------------

 -------------------------------------------------------------------------------
 -                                                                             -
 -                                DBM STATISTICS                               -
 -                                                                             -
 -------------------------------------------------------------------------------
    M  x    N  x    K                                          COUNT     PERCENT
 -------------------------------------------------------------------------------

 -------------------------------------------------------------------------------
 -                                                                             -
 -                                GRID STATISTICS                              -
 -                                                                             -
 -------------------------------------------------------------------------------
 LP    KERNEL             BACKEND                              COUNT     PERCENT
 1     collocate ortho    CPU                                  16740      18.03%
 1     integrate ortho    CPU                                  16416      17.68%
 2     collocate ortho    CPU                                  15035      16.19%
 2     integrate ortho    CPU                                  14744      15.88%
 0     collocate ortho    CPU                                   8835       9.51%
 0     integrate ortho    CPU                                   8664       9.33%
 3     collocate ortho    CPU                                   5270       5.67%
 3     integrate ortho    CPU                                   5168       5.56%
 4     collocate ortho    CPU                                    620       0.67%
 4     integrate ortho    CPU                                    608       0.65%
 0     collocate general  CPU                                    512       0.55%
 0     integrate general  CPU                                    256       0.28%
 -------------------------------------------------------------------------------

 MEMORY| Estimated peak process memory [MiB]                                 542

 -------------------------------------------------------------------------------
 ----                             MULTIGRID INFO                            ----
 -------------------------------------------------------------------------------
 count for grid        1:        1190458          cutoff [a.u.]          600.00
 count for grid        2:        1530970          cutoff [a.u.]          200.00
 count for grid        3:        1187919          cutoff [a.u.]           66.67
 count for grid        4:         547891          cutoff [a.u.]           22.22
 count for grid        5:         112662          cutoff [a.u.]            7.41
 total gridlevel count  :        4569900

 -------------------------------------------------------------------------------
 -                                                                             -
 -                         MESSAGE PASSING PERFORMANCE                         -
 -                                                                             -
 -------------------------------------------------------------------------------

 ROUTINE             CALLS      AVE VOLUME [Bytes]
 MP_Group                6
 MP_Bcast              248                1411233.
 MP_Allreduce         5715                    266.
 MP_Sync               689
 MP_Alltoall          4306                1105694.
 MP_SendRecv         78740                  23360.
 MP_ISendRecv        77216                  23360.
 MP_Wait            127868
 MP_comm_split          70
 MP_ISend            51233                  98258.
 MP_IRecv            53856                  93443.
 -------------------------------------------------------------------------------


 -------------------------------------------------------------------------------
 -                                                                             -
 -                           R E F E R E N C E S                               -
 -                                                                             -
 -------------------------------------------------------------------------------
 
 CP2K version 2024.1 (Development Version), the CP2K developers group (2024).
 CP2K is freely available from https://www.cp2k.org/ .

 Kuehne,Thomas D.; Iannuzzi,Marcella; Del Ben,Mauro;
 Rybkin,Vladimir V.; Seewald,Patrick; Stein,Frederick; Laino,Teodoro;
 Khaliullin,Rustam Z.; Schuett,Ole; Schiffmann,Florian; Golze,Dorothea;
 Wilhelm,Jan; Chulkov,Sergey; Bani-Hashemian,Mohammad Hossein;
 Weber,Valery; Borstnik,Urban; Taillefumier,Mathieu;
 Jakobovits,Alice Shoshana; Lazzaro,Alfio; Pabst,Hans; Mueller,Tiziano;
 Schade,Robert; Guidon,Manuel; Andermatt,Samuel; Holmberg,Nico;
 Schenter,Gregory K.; Hehn,Anna; Bussy,Augustin; Belleflamme,Fabian;
 Tabacchi,Gloria; Gloess,Andreas; Lass,Michael; Bethune,Iain;
 Mundy,Christopher J.; Plessl,Christian; Watkins,Matt;
 VandeVondele,Joost; Krack,Matthias; Hutter,Juerg. 
 The Journal of Chemical Physics, 152 (19), (2020). 
 CP2K: An electronic structure and molecular dynamics software package -
 Quickstep: Efficient and accurate electronic structure calculations.
 https://doi.org/10.1063/5.0007045

 Schuett, Ole; Messmer, Peter; Hutter, Juerg; VandeVondele, Joost. 
 Electronic Structure Calculations on Graphics Processing Units, John
 Wiley & Sons, Ltd, 173-190 (2016). 
 GPU-Accelerated Sparse Matrix-Matrix Multiplication for
 Linear Scaling Density Functional Theory.
 https://doi.org/10.1002/9781118670712.ch8

 Heinecke, A; Henry, G; Hutchinson, M; Pabst, H. 
 Proceedings of Intl. Supercomputing Conference, 981-991 (2016). 
 LIBXSMM: Accelerating Small Matrix Multiplications
 by Runtime Code Generation.
 https://doi.org/10.1109/SC.2016.83

 Borstnik, U; VandeVondele, J; Weber, V; Hutter, J. 
 PARALLEL COMPUTING, 40 (5-6), 47-58 (2014). 
 Sparse matrix multiplication: The distributed block-compressed sparse
 row library.
 https://doi.org/10.1016/j.parco.2014.03.012

 Hutter, J; Iannuzzi, M; Schiffmann, F; VandeVondele, J. 
 WIREs Comput Mol Sci., 4 (1), 15-25 (2014). 
 CP2K: atomistic simulations of condensed matter systems.
 https://doi.org/10.1002/wcms.1159

 Krack, M. 
 THEORETICAL CHEMISTRY ACCOUNTS, 114 (1-3), 145-152 (2005). 
 Pseudopotentials for H to Kr optimized for gradient-corrected
 exchange-correlation functionals.
 https://doi.org/10.1007/s00214-005-0655-y

 VandeVondele, J; Krack, M; Mohamed, F; Parrinello, M; Chassaing, T;
 Hutter, J. COMPUTER PHYSICS COMMUNICATIONS, 167 (2), 103-128 (2005). 
 QUICKSTEP: Fast and accurate density functional calculations using a
 mixed Gaussian and plane waves approach.
 https://doi.org/10.1016/j.cpc.2004.12.014

 Frigo, M; Johnson, SG. 
 PROCEEDINGS OF THE IEEE, 93 (2), 216-231 (2005). 
 The design and implementation of FFTW3.
 https://doi.org/10.1109/JPROC.2004.840301

 Iannuzzi, M; Chassaing, T; Wallman, T; Hutter, J. 
 CHIMIA, 59 (7-8), 499-503 (2005). 
 Ground and excited state density functional calculations with the
 Gaussian and augmented-plane-wave method.
 https://doi.org/10.2533/000942905777676164

 VandeVondele, J; Hutter, J. 
 JOURNAL OF CHEMICAL PHYSICS, 118 (10), 4365-4369 (2003). 
 An efficient orbital transformation method for electronic structure
 calculations.
 https://doi.org/10.1063/1.1543154

 Martin,Richard L.. 
 The Journal of Chemical Physics, 118 (11), 4775-4777 (2003). 
 Natural transition orbitals.
 https://doi.org/10.1063/1.1558471

 Martyna, GJ; Tuckerman, ME. 
 JOURNAL OF CHEMICAL PHYSICS, 110 (6), 2810-2821 (1999). 
 A reciprocal space based method for treating long range interactions in
 ab initio and force-field-based calculations in clusters.
 https://doi.org/10.1063/1.477923

 Hartwigsen, C; Goedecker, S; Hutter, J. 
 PHYSICAL REVIEW B, 58 (7), 3641-3662 (1998). 
 Relativistic separable dual-space Gaussian pseudopotentials from H to Rn.
 https://doi.org/10.1103/PhysRevB.58.3641

 Lippert, G; Hutter, J; Parrinello, M. 
 MOLECULAR PHYSICS, 92 (3), 477-487 (1997). 
 A hybrid Gaussian and plane wave density functional scheme.
 https://doi.org/10.1080/002689797170220

 Perdew, JP; Burke, K; Ernzerhof, M. 
 PHYSICAL REVIEW LETTERS, 77 (18), 3865-3868 (1996). 
 Generalized gradient approximation made simple.
 https://doi.org/10.1103/PhysRevLett.77.3865

 Goedecker, S; Teter, M; Hutter, J. 
 PHYSICAL REVIEW B, 54 (3), 1703-1710 (1996). 
 Separable dual-space Gaussian pseudopotentials.
 https://doi.org/10.1103/PhysRevB.54.1703


 -------------------------------------------------------------------------------
 -                                                                             -
 -                                T I M I N G                                  -
 -                                                                             -
 -------------------------------------------------------------------------------
 SUBROUTINE                       CALLS  ASD         SELF TIME        TOTAL TIME
                                MAXIMUM       AVERAGE  MAXIMUM  AVERAGE  MAXIMUM
 CP2K                                 1  1.0    0.142    0.291 2135.074 2135.079
 qs_energies                          1  2.0    0.001    0.020 2134.057 2134.079
 qs_energies_properties               1  3.0    0.000    0.000 1820.965 1820.991
 tddfpt                               1  4.0    0.000    0.009 1820.965 1820.991
 tddfpt_soc_energies                  1  5.0    0.000    0.013 1812.798 1812.829
 tddfpt_energies                      2  6.0    0.000    0.001 1757.239 1757.253
 tddfpt_davidson_solver               4  7.0    0.004    0.019 1648.974 1649.003
 tddfpt_compute_Aop_evects           14  8.0    0.000    0.011 1191.184 1191.292
 fhxc_kernel                         14  9.0    0.005    0.016  990.235  990.368
 dbcsr_multiply_generic            1202 10.9    0.101    0.154  811.568  824.289
 cp_dbcsr_sm_fm_multiply            603  9.3    0.010    0.034  787.868  791.021
 multiply_cannon                   1202 11.9    3.370    3.857  471.881  491.676
 multiply_cannon_loop              1202 12.9    0.732    0.978  421.265  440.013
 pw_transfer                       3224 12.4    0.155    0.216  391.871  394.040
 fft_wrap_pw1pw2                   3060 13.4    0.013    0.037  391.644  393.832
 fft3d_ps                          3060 15.4    7.750    8.674  389.042  391.697
 multiply_cannon_multrec          19232 13.9  326.749  379.926  326.755  379.930
 dbcsr_complete_redistribute       1713 11.4    0.072    0.150  364.388  367.886
 cp_dbcsr_sm_fm_multiply_core       603 10.3    0.001    0.001  350.002  359.832
 tddfpt_orthonormalize_psi1_psi      16  7.9    0.011    0.115  347.794  348.672
 copy_dbcsr_to_fm                   662 10.2    0.007    0.017  310.205  321.014
 scf_env_do_scf                       1  3.0    0.000    0.010  303.439  303.466
 scf_env_do_scf_inner_loop           12  4.0    0.002    0.025  286.190  286.216
 cp_dbcsr_plus_fm_fm_t_native       141 10.0    0.002    0.002  272.930  274.954
 mp_alltoall_z22v                  3060 17.4  237.204  242.060  237.204  242.060
 qs_scf_new_mos                      12  5.0    0.000    0.000  232.452  232.951
 qs_scf_loop_do_ot                   12  6.0    0.000    0.000  232.452  232.951
 qs_rho_update_rho_low              155  9.6    0.003    0.013  226.336  229.203
 calculate_rho_elec                 155 10.6    0.046    0.082  226.333  229.203
 ot_scf_mini                         12  7.0    0.000    0.000  221.948  222.698
 fft_wrap_pw1pw2_600               1831 14.5    0.167    0.236  213.558  216.396
 copy_fm_to_dbcsr                  1051 10.6    0.004    0.014  212.841  215.704
 mp_sum_l                          5121 11.0  205.125  211.375  205.125  211.375
 mp_waitall_1                    215244 14.6  140.240  206.826  140.240  206.826
 tddfpt_apply_energy_diff            14  9.0    0.001    0.001  200.949  201.054
 integrate_v_rspace                 152  9.9    0.003    0.014  196.517  199.296
 mp_alltoall_i22                   2390 12.4  185.516  196.253  185.516  196.253
 density_rs2pw                      155 11.6    0.008    0.029  189.940  191.190
 potential_pw2rs                    152 10.9    0.007    0.021  188.978  189.301
 mp_alltoall_d11v                  7477 12.6  166.235  181.558  166.235  181.558
 dbcsr_desymmetrize_deep            666 11.2    0.013    0.045  158.804  169.705
 ot_mini                             12  8.0    0.002    0.034  150.774  151.195
 cp_fm_trace_a1b1t1_aa             3880  9.0    8.705   12.573  146.564  147.522
 tddfpt_apply_xc_analytic           140 10.0    0.086    0.119  144.980  145.335
 mp_sum_dv                         4012 10.1  140.422  143.646  140.422  143.646
 xc_pw_derive                      1131 11.7    0.006    0.016  134.185  135.509
 tddfpt_compute_residual_vects       10  8.0    0.001    0.011  129.533  130.058
 qs_ot_get_derivative                12  9.0    0.000    0.000  124.998  125.617
 x_to_yz                           1064 16.1    3.285    3.919  121.606  123.646
 multiply_cannon_metrocomm3       19232 13.9    0.048    0.075   76.277  123.346
 make_m2s                          2404 11.9    0.027    0.038   98.111  103.239
 mp_alltoall_z11v                   921 17.2  100.597  102.271  100.597  102.271
 make_images                       2404 12.9    6.929    7.640   97.586  101.463
 mp_alltoall_i11v                  5838 12.4   91.074   93.851   91.074   93.851
 make_images_sizes                 2404 13.9    0.004    0.026   89.892   92.897
 mp_alltoall_i44                   2404 14.9   89.888   92.895   89.888   92.895
 qs_ot_get_derivative_diag           11 10.0    0.000    0.000   90.805   91.483
 yz_to_x                            768 17.2    0.222    0.370   84.064   86.109
 transfer_pw2rs                     761 11.9    0.005    0.017   80.195   81.137
 xc_pw_divergence                   152 11.8    0.002    0.013   73.031   74.109
 mp_cart_sub                       1334 12.2   69.390   72.528   69.390   72.528
 xc_calc_2nd_deriv_analytical       140 11.0    3.246    4.514   70.954   71.217
 yz_to_xz                           608 15.9    1.516    1.782   69.730   71.197
 tddfpt_print_nto_analysis            2  7.0    0.002    0.005   70.517   70.656
 xz_to_yz                           620 16.6    1.599    1.845   68.572   70.295
 transfer_rs2pw                     777 12.5    0.007    0.017   69.169   70.279
 mp_waitany                       44640 14.2   56.503   59.961   56.503   59.961
 tddfpt_soc                           1  6.0    0.000    0.000   54.220   54.245
 tddfpt_soc_rcs                       1  7.0    0.007    0.027   54.220   54.244
 fft_wrap_pw1pw2_10                 307 14.2    0.002    0.014   46.541   48.596
 qs_ot_get_p                         13  7.8    0.000    0.000   47.173   47.774
 mp_allgather_i34                  1202 12.9   46.154   47.335   46.154   47.335
 mp_cart_create                     671 12.1   42.098   46.602   42.098   46.602
 fft_wrap_pw1pw2_70                 307 14.2    0.004    0.017   44.366   45.323
 fft_wrap_pw1pw2_30                 307 14.2    0.002    0.015   43.618   44.450
 fft_wrap_pw1pw2_200                307 14.2    0.008    0.018   43.397   44.006
 hybrid_alltoall_any               3070 14.3    0.022    0.267   39.355   42.958
 -------------------------------------------------------------------------------

 The number of warnings for this run is : 1
 
 -------------------------------------------------------------------------------
  **** **** ******  **  PROGRAM ENDED AT                 2024-01-15 14:28:40.073
 ***** ** ***  *** **   PROGRAM RAN ON                               nesh-clk555
 **    ****   ******    PROGRAM RAN BY                                  suphc355
 ***** **    ** ** **   PROGRAM PROCESS ID                                714279
  **** **  *******  **  PROGRAM STOPPED IN /gxfs_work/cau/suphc355/homologes/HX/
                                           PP/Cl
